<?xml version="1.0"?>
<VTKFile type="UnstructuredGrid"  version="0.1"  >
<UnstructuredGrid>
<Piece  NumberOfPoints="825" NumberOfCells="1536">
<Points>
<DataArray  type="Float64"  NumberOfComponents="3"  format="ascii">-9.794667464533438e-22 0.5 0  0.06249999955886429 0.500000021169053 0  0.06249997054656967 0.5625000262384031 0  -3.000757422871231e-08 0.5625000025887342 0  0.1249999973580719 0.5000000426209263 0  0.124999968668413 0.562500045342651 0  0.1874999924513482 0.5000000626713369 0  0.1874999645600081 0.5625000624323643 0  0.2499999850078821 0.5000000803129478 0  0.2499999581441007 0.5625000773424919 0  0.3124999743673348 0.5000000951975644 0  0.3124999491950073 0.5625000891384434 0  0.3749999584631584 0.500000103440045 0  0.3749999372468595 0.5625000964019535 0  0.4374999366286992 0.5000001050524386 0  0.4374999223488819 0.5625000983021781 0  0.4999999100804809 0.5000000989420844 0  0.4999999049904991 0.5625000943707947 0  0.5624998820992754 0.5000000876235691 0  0.5624998861946474 0.5625000857048451 0  0.6249998560483948 0.500000074348786 0  0.6249998675343832 0.5625000741773026 0  0.687499832817875 0.5000000596254359 0  0.6874998500656828 0.5625000604060909 0  0.7499998117473626 0.5000000426504412 0  0.7499998342173697 0.5625000448410626 0  0.8124997941233624 0.5000000253302863 0  0.8124998207444094 0.5625000285029063 0  0.8749997806113745 0.500000007807325 0  0.8749998099810979 0.5625000115384157 0  0.9374997704623127 0.4999999894740154 0  0.9374998020045763 0.5624999945769205 0  0.9999997658641965 0.4999999740822175 0  0.9999997973046222 0.5624999789816962 0  1.062499766025556 0.4999999612582459 0  1.062499795940151 0.5624999643205285 0  1.124999767060396 0.4999999448089961 0  1.124999797361611 0.5624999497264616 0  1.187499773175326 0.4999999310085532 0  1.18749980149734 0.5624999366170207 0  1.249999784148523 0.49999992180688 0  1.249999808469568 0.5624999254422333 0  1.312499795492786 0.4999999101018789 0  1.312499817719301 0.5624999155607154 0  1.374999811216162 0.4999999024724976 0  1.374999828990632 0.5624999084599884 0  1.437499830783564 0.499999900880642 0  1.437499842224788 0.5624999047858478 0  1.499999849935721 0.4999998992714935 0  1.499999856746152 0.5624999041862333 0  1.562499872100125 0.4999999040205332 0  1.562499872208385 0.5624999079453956 0  1.624999896698265 0.4999999163694327 0  1.624999888513905 0.5624999161123321 0  1.687499919378809 0.4999999287951533 0  1.6874999048534 0.5624999271861375 0  1.749999942409606 0.4999999447812578 0  1.749999920448335 0.5624999410414724 0  1.812499964759637 0.4999999648880935 0  1.812499934802275 0.5624999570214811 0  1.874999981832413 0.4999999813616647 0  1.874999946871146 0.562499973234983 0  1.937499994408395 0.4999999938815941 0  1.937499955498434 0.5624999900754079 0  2 0.5 0  1.99999996046785 0.5625000167887165 0  0.06249994697894159 0.6250000312259503 0  -5.367977572394136e-08 0.6250000116755692 0  0.1249999460025639 0.6250000478720867 0  0.1874999431470881 0.6250000624508552 0  0.2499999384309644 0.6250000749049763 0  0.3124999318662726 0.6250000845751851 0  0.3749999234184154 0.6250000905905004 0  0.4374999131693569 0.6250000922411197 0  0.4999999013698164 0.6250000892839144 0  0.562499888492261 0.6250000822446337 0  0.6249998753065986 0.6250000720928705 0  0.6874998625812636 0.6250000595860409 0  0.7499998508597722 0.6250000453479543 0  0.8124998406228302 0.6250000300037504 0  0.8749998322199782 0.6250000140487885 0  0.9374998258441219 0.6249999980792161 0  0.999999821740397 0.6249999827022842 0  1.062499820064416 0.6249999680477535 0  1.124999820641811 0.6249999541223733 0  1.187499823285594 0.6249999413740516 0  1.249999827944009 0.6249999302116593 0  1.31249983434681 0.6249999208696171 0  1.374999842185418 0.6249999139078918 0  1.437499851278133 0.6249999098385378 0  1.49999986127698 0.6249999089355081 0  1.562499871847881 0.6249999115610886 0  1.62499988278673 0.6249999177194064 0  1.687499893661276 0.624999926902179 0  1.749999903915367 0.6249999386341012 0  1.812499913051854 0.6249999523652567 0  1.874999920340448 0.6249999675687072 0  1.937499924924017 0.6249999850812094 0  1.999999926870905 0.6250000076752628 0  0.06249992946677218 0.6875000366328147 0  -7.092822780135427e-08 0.6875000218023628 0  0.1249999290026926 0.6875000502872146 0  0.1874999272481471 0.6875000623914189 0  0.2499999241280065 0.6875000726207089 0  0.31249991967935 0.687500080433237 0  0.3749999139552464 0.687500085198115 0  0.4374999070362251 0.6875000864052986 0  0.4999998990640305 0.6875000838730675 0  0.5624998902980907 0.6875000778567441 0  0.624999881153343 0.6875000689134702 0  0.687499872107241 0.6875000576527587 0  0.7499998635891982 0.6875000446521411 0  0.8124998559678397 0.6875000304602974 0  0.8749998495322466 0.6875000155940061 0  0.9374998444961485 0.6875000005653851 0  0.9999998410449826 0.6874999858241883 0  1.06249983928613 0.6874999716568003 0  1.124999839177929 0.6874999582890785 0  1.187499840610577 0.6874999460384369 0  1.249999843467235 0.6874999352522516 0  1.312499847562881 0.687499926268163 0  1.374999852678381 0.6874999194800818 0  1.437499858610459 0.6874999152651986 0  1.499999865126638 0.6874999139047618 0  1.562499871995076 0.6874999155788692 0  1.624999879000665 0.6874999202574642 0  1.687499885854497 0.6874999276643071 0  1.749999892190566 0.6874999374055948 0  1.81249989760294 0.6874999490484802 0  1.874999901622388 0.6874999622785445 0  1.937499903901817 0.6874999771599575 0  1.999999904700199 0.6874999935398119 0  0.06249991724680087 0.7500000421842157 0  -8.295894484476844e-08 0.7500000315889078 0  0.124999917037385 0.7500000527411772 0  0.1874999160582694 0.7500000623855908 0  0.2499999141747501 0.7500000705436677 0  0.3124999113767087 0.7500000766780853 0  0.3749999076979868 0.7500000802777744 0  0.4374999031907666 0.7500000809532515 0  0.4999998979381012 0.7500000785455968 0  0.5624998920880848 0.7500000731751293 0  0.6249998858746886 0.7500000651840839 0  0.6874998795886544 0.7500000550242202 0  0.7499998735267769 0.7500000431796038 0  0.8124998679607632 0.7500000301346745 0  0.8749998631203787 0.7500000163620438 0  0.9374998591915495 0.7500000023133956 0  0.9999998563199047 0.7499999883905333 0  1.062499854589397 0.7499999749226202 0  1.124999854001135 0.749999962200897 0  1.187499854494109 0.749999950528442 0  1.249999855970191 0.7499999402221089 0  1.312499858294778 0.7499999316025567 0  1.374999861310929 0.7499999249917773 0  1.437499864857783 0.749999920681541 0  1.499999868770416 0.7499999188904514 0  1.56249987288495 0.7499999197271267 0  1.624999877034228 0.7499999231467096 0  1.687499881020446 0.7499999289398708 0  1.749999884606668 0.7499999367728568 0  1.812499887533537 0.7499999462387372 0  1.874999889563322 0.7499999569027493 0  1.937499890613809 0.7499999682343348 0  1.99999989092347 0.7499999791273033 0  0.06249990928183181 0.8125000475586084 0  -9.081922998100541e-08 0.8125000405130423 0  0.1249999092105759 0.8125000552324081 0  0.1874999087346388 0.812500062528407 0  0.2499999077192611 0.8125000687515116 0  0.3124999061150195 0.8125000733485012 0  0.3749999039171645 0.8125000758640991 0  0.4374999011424104 0.812500075970835 0  0.4999998978304138 0.8125000735175955 0  0.5624998940603915 0.8125000685509634 0  0.6249998899629987 0.8125000612881917 0  0.6874998857116156 0.8125000520596655 0  0.7499998814991097 0.8125000412550897 0  0.8124998775154868 0.8125000292880235 0  0.8749998739325923 0.8125000165745209 0  0.9374998708961103 0.8125000035166248 0  0.9999998685189788 0.8124999904854056 0  1.062499866869694 0.8124999778131353 0  1.124999865964022 0.812499965805203 0  1.187499865770878 0.8124999547583889 0  1.249999866224143 0.8124999449668621 0  1.312499867231706 0.8124999367180089 0  1.374999868686176 0.8124999302816152 0  1.437499870475413 0.8124999258879564 0  1.499999872487714 0.8124999236987566 0  1.56249987461347 0.8124999237774239 0  1.624999876740833 0.812499926063683 0  1.687499878746302 0.812499930364332 0  1.7499998804933 0.8124999363625129 0  1.812499881848157 0.8124999436285854 0  1.874999882720397 0.8124999516011964 0  1.937499883127816 0.8124999594773781 0  1.999999883230253 0.812499965938473 0  0.06249990464616229 0.8750000525436178 0  -9.540365195263112e-08 0.8750000483715756 0  0.1249999046547737 0.8750000576892334 0  0.1874999044921041 0.8750000628407029 0  0.2499999040505679 0.8750000672850158 0  0.3124999032649012 0.87500007047216 0  0.3749999021013352 0.8750000719779728 0  0.4374999005461166 0.8750000715066414 0  0.4999998986047771 0.8750000689078185 0  0.5624998963098274 0.8750000641833832 0  0.6249998937274626 0.8750000574716541 0  0.6874998909553753 0.8750000490143167 0  0.7499998881120233 0.8750000391199787 0  0.8124998853230381 0.8750000281338998 0  0.8749998827092739 0.8750000164154578 0  0.9374998803776697 0.8750000043209085 0  0.9999998784132632 0.8749999921902817 0  1.062499876871327 0.8749999803411933 0  1.124999875772739 0.8749999690712305 0  1.18749987510577 0.8749999586636585 0  1.24999987483245 0.874999949389318 0  1.312499874896304 0.8749999415023348 0  1.374999875230656 0.874999935229506 0  1.437499875766088 0.8749999307532703 0  1.499999876435168 0.8749999281903313 0  1.56249987717394 0.8749999275695474 0  1.624999877920137 0.8749999288133176 0  1.687499878610478 0.8749999317264044 0  1.74999987918281 0.8749999359905738 0  1.812499879587959 0.8749999411542613 0  1.874999879811505 0.874999946597986 0  1.937499879893987 0.8749999514541626 0  1.999999879917769 0.8749999544719809 0  0.06249990257429178 0.9375000570260285 0  -9.745445595276003e-08 0.9375000551296593 0  0.1249999026299295 0.9375000600342421 0  0.1874999026549981 0.9375000632958284 0  0.2499999025747654 0.937500066141172 0  0.3124999023250002 0.9375000680478046 0  0.3749999018570574 0.9375000686188715 0  0.4374999011364237 0.9375000675785378 0  0.4999999001437213 0.9375000647754472 0  0.5624998988791419 0.937500060182239 0  0.6249998973665982 0.9375000538841843 0  0.6874998956537191 0.937500046057
[...]
<PointData  Scalars="p"> 
<DataArray  type="Float64"  Name="p"  format="ascii">0.0000000000000000e+00  -1.0731210947209941e-04  -1.1370167756594414e-04  0.0000000000000000e+00  -1.8497832988381176e-04  -1.8941866976167785e-04  -2.3704868772517524e-04  -2.3862147636835590e-04  -2.6866398473860786e-04  -2.6792448200232456e-04  -2.8416674967823049e-04  -2.8185887904028166e-04  -2.8696450153695288e-04  -2.8371877792909156e-04  -2.7967702347020851e-04  -2.7598365690306714e-04  -2.6439116993711440e-04  -2.6059478641569396e-04  -2.4275020507771592e-04  -2.3909422885311324e-04  -2.1606387285782089e-04  -2.1271889455960549e-04  -1.8539623992265807e-04  -1.8248114449282668e-04  -1.5161548631242196e-04  -1.4922145998392999e-04  -1.1548436685256514e-04  -1.1367035326263898e-04  -7.7676378220377550e-05  -7.6478489148671622e-05  -3.8784967615490642e-05  -3.8228603418431759e-05  6.3702667257872878e-07  5.3698548242036251e-07  4.0062860691153457e-05  3.9292749362279649e-05  7.8904173212423397e-05  7.7484054679050559e-05  1.1656927416495710e-04  1.1454037288148564e-04  1.5250531246016234e-04  1.4989667156264640e-04  1.8602800040360413e-04  1.8291222241759552e-04  2.1638793437443331e-04  2.1286831810222689e-04  2.4278961749892418e-04  2.3897572927679197e-04  2.6419349309347271e-04  2.6026661968905906e-04  2.7933944879896623e-04  2.7555549021147203e-04  2.8670963928109666e-04  2.8339477086861343e-04  2.8425608411238398e-04  2.8189243006402373e-04  2.6932478784395705e-04  2.6855775210117517e-04  2.3849665085488904e-04  2.4006104677664922e-04  1.8723345394846196e-04  1.9167018611969641e-04  1.0992684100732776e-04  1.1611630716486362e-04  0.0000000000000000e+00  0.0000000000000000e+00  -1.2577339754301880e-04  0.0000000000000000e+00  -2.0006370441207768e-04  -2.4433940047949087e-04  -2.6883656759951481e-04  -2.7909145824996648e-04  -2.7849267043970351e-04  -2.6934517016914602e-04  -2.5335515850504256e-04  -2.3185415372620224e-04  -2.0591660274319506e-04  -1.7643353067757533e-04  -1.4416026163453953e-04  -1.0975815174157086e-04  -7.3821966946857473e-05  -3.6895537140884009e-05  5.0992240010686784e-07  3.7895580083988245e-05  7.4752381170500374e-05  1.1055781543704926e-04  1.4477451943020614e-04  1.7681948049889858e-04  2.0604848892299388e-04  2.3174141745581963e-04  2.5304919768601468e-04  2.6894585869403231e-04  2.7816063992691810e-04  2.7902921200428530e-04  2.6925305511983649e-04  2.4540521558284614e-04  2.0177171115728749e-04  1.2757270766782495e-04  0.0000000000000000e+00  -1.3838791488031310e-04  0.0000000000000000e+00  -2.1316497811007572e-04  -2.5326701513465790e-04  -2.7272889761021534e-04  -2.7862892052135478e-04  -2.7480655509576644e-04  -2.6356225033973062e-04  -2.4643500450538389e-04  -2.2455722516478974e-04  -1.9882504336353669e-04  -1.6998417850960939e-04  -1.3867615696059097e-04  -1.0547107989635588e-04  -7.0889877666391446e-05  -3.5417808222771637e-05  4.8327317349127824e-07  3.6361461059216128e-05  7.1761860788925266e-05  1.0621971398640519e-04  1.3925462066979622e-04  1.7035625743407989e-04  1.9897117201519873e-04  2.2448426560501525e-04  2.4618396505609192e-04  2.6321359501373359e-04  2.7448387497745703e-04  2.7849226076494499e-04  2.7295529423961159e-04  2.5400925472543993e-04  2.1443817096350139e-04  1.3977788856036090e-04  0.0000000000000000e+00  -1.5046195355040190e-04  0.0000000000000000e+00  -2.2699326905447476e-04  -2.6413287954658502e-04  -2.7917908954793483e-04  -2.8082913065779683e-04  -2.7357768149312582e-04  -2.5988766178923749e-04  -2.4123820425419199e-04  -2.1862123805961250e-04  -1.9277949301309060e-04  -1.6431885603117048e-04  -1.3376192579980385e-04  -1.0157956405964538e-04  -6.8209985852080835e-05  -3.4068857836370846e-05  4.4328429141047422e-07  3.4933119498296362e-05  6.9006802871423149e-05  1.0226453055675108e-04  1.3429547401006513e-04  1.6467103460818819e-04  1.9293439549568245e-04  2.1858340293003480e-04  2.4103920355084401e-04  2.5959059489513221e-04  2.7327993753840262e-04  2.8066198170069564e-04  2.7929750530748273e-04  2.6468103885885538e-04  2.2800761612142868e-04  1.5161633447817387e-04  0.0000000000000000e+00  -1.6188003347942026e-04  0.0000000000000000e+00  -2.4083795918178615e-04  -2.7599605865447145e-04  -2.8738759049102365e-04  -2.8519843313434671e-04  -2.7462966454221312e-04  -2.5840310100465574e-04  -2.3802489110397407e-04  -2.1440867024504371e-04  -1.8818168905810403e-04  -1.5983005955120822e-04  -1.2976597222815841e-04  -9.8363207426237055e-05  -6.5975786895653961e-05  -3.2945605508511465e-05  3.9372734513284835e-07  3.3712958435924042e-05  6.6683209788061392e-05  9.8972691112185452e-05  1.3024447596848406e-04  1.6015268252663251e-04  1.8833532888818579e-04  2.1439618789091539e-04  2.3787048465210883e-04  2.5815699829091169e-04  2.7437149471873628e-04  2.8503973986696187e-04  2.8746683013065069e-04  2.7644986585683361e-04  2.4171374859198997e-04  1.6290194386426731e-04  0.0000000000000000e+00  -1.7268117939594750e-04  0.0000000000000000e+00  -2.5435564032202609e-04  -2.8819368881716738e-04  -2.9658354619543442e-04  -2.9102655436808887e-04  -2.7739697637445661e-04  -2.5870771747435640e-04  -2.3654268039422242e-04  -2.1178392972363006e-04  -1.8497843871362129e-04  -1.5651610733533552e-04  -1.2671314830860344e-04  -9.5854382139058238e-05  -6.4213457503353740e-05  -3.2059489195511600e-05  3.4142183990753450e-07  3.2725065933439917e-05  6.4827758446930512e-05  9.6385540869281931e-05  1.2713358944135150e-04  1.5680546315663586e-04  1.8512575580753945e-04  2.1179108962548503e-04  2.3642875120938407e-04  2.5851334700360655e-04  2.7718886334410453e-04  2.9090156345717771e-04  2.9666588745078153e-04  2.8861056278213054e-04  2.5515792114618434e-04  1.7362389135789776e-04  0.0000000000000000e+00  -1.8285116078038937e-04  0.0000000000000000e+00  -2.6728296018074793e-04  -3.0020410230805411e-04  -3.0609327756650170e-04  -2.9760676888215842e-04  -2.8122483241986411e-04  -2.6024309768721829e-04  -2.3634273480570961e-04  -2.1040204891317911e-04  -1.8291389402869183e-04  -1.5419307508325456e-04  -1.2447539704732319e-04  -9.3967408959604588e-05  -6.2869502412102695e-05  -3.1382574746131729e-05  2.9172528693228330e-07  3.1951679090684557e-05  6.3396138678702271e-05  9.4425282478026042e-05  1.2484203105528303e-04  1.5445163882200357e-04  1.8305559694809333e-04  2.1042818876305548e-04  2.3626847436721904e-04  2.6010191167316523e-04  2.8107298908617965e-04  2.9752831703992646e-04  3.0619920335586264e-04  3.0061065003326098e-04  2.6803986581206508e-04  1.8373628674754118e-04  0.0000000000000000e+00  -1.9227988341080014e-04  0.0000000000000000e+00  -2.7932834752000764e-04  -3.1155397806427313e-04  -3.1531878459532977e-04  -3.0429163081698225e-04  -2.8548093779794749e-04  -2.6243478614601041e-04  -2.3693003566646639e-04  -2.0985325507677638e-04  -1.8165998164557803e-04  -1.5260648707216741e-04  -1.2286230052142868e-04  -9.2567082934603734e-05  -6.1856717354707061e-05  -3.0870738634436249e-05  2.4800906811794962e-07  3.1355235478648266e-05  6.2307084904537799e-05  9.2962281108234870e-05  1.2318416959779675e-04  1.5284161871052714e-04  1.8180100093742363e-04  2.0990133538658634e-04  2.3689741046822632e-04  2.6234862979661983e-04  2.8538848486099426e-04  3.0426496520718799e-04  3.1545507945330534e-04  3.1195758257243845e-04  2.8004530182314789e-04  1.9310875470621210e-04  0.0000000000000000e+00  -2.0076673009469529e-04  0.0000000000000000e+00  -2.9014140631949991e-04  -3.2177264423737163e-04  -3.2370869774982826e-04  -3.1049597652200680e-04  -2.8958920639417593e-04  -2.6474800188628847e-04  -2.3783040736431190e-04  -2.0973278748768632e-04  -1.8088264278586530e-04  -1.5148974084554405e-04  -1.2166949478492816e-04  -9.1505596832346144e-05  -6.1078972034376953e-05  -3.0476042071099647e-05  2.1179787395406090e-07  3.0890712578000550e-05  6.1467237913456229e-05  9.1851127106462534e-05  1.2195822798910671e-04  1.5171097061436256e-04  1.8103068492015905e-04  2.0980818053412673e-04  2.3784303009135994e-04  2.6471971416777728e-04  2.8955823524973780e-04  3.1052248780267334e-04  3.2387527371118756e-04  3.2216963182167730e-04  2.9080984270137748e-04  2.0152720401118073e-04  0.0000000000000000e+00  -2.0804063311662872e-04  0.0000000000000000e+00  -2.9931662416104511e-04  -3.3037905883266281e-04  -3.3074269704273291e-04  -3.1568998935742776e-04  -2.9303680928866190e-04  -2.6670693445941031e-04  -2.3861871725125346e-04  -2.0967332249581774e-04  -1.8027450658945643e-04  -1.5059422459961401e-04  -1.2070407254216596e-04  -9.0642198818468014e-05  -6.0444383888271553e-05  -3.0153058200366927e-05  1.8328593653719406e-07  3.0513081939317802e-05  6.0785014166744006e-05  9.0951460853434154e-05  1.2097156563129346e-04  1.5081205046804492e-04  1.8043806142594432e-04  2.0978312840232646e-04  2.3868176752187551e-04  2.6674014210916277e-04  2.9306963657613552e-04  3.1576966358054433e-04  3.3093576544816782e-04  3.3075968201417676e-04  2.9991898887414911e-04  2.0871155809847207e-04  0.0000000000000000e+00  -2.1378488921584889e-04  0.0000000000000000e+00  -3.0641282340877014e-04  -3.3688912301274560e-04  -3.3593003573535691e-04  -3.1939736719080545e-04  -2.9537555440154622e-04  -2.6790222243319636e-04  -2.3893106703620583e-04  -2.0936024943559258e-04  -1.7957112176273716e-04  -1.4970469546015370e-04  -1.1979793433593499e-04  -8.9853545823778856e-05  -5.9872210447241934e-05  -2.9862047432425049e-05  1.6206723914949463e-07  3.0181765885725907e-05  6.0178883571456884e-05  9.0139154922570607e-05  1.2005557458942931e-04  1.4992901798905410e-04  1.7975904690374796e-04  2.0951164298305775e-04  2.3905081017682204e-04  2.6800125058594069e-04  2.9547464178060229e-04  3.1952953008760080e-04  3.3614382364972802e-04  3.3723970650718335e-04  3.0692607708727353e-04  2.1433920585862948e-04  0.0000000000000000e+00  -2.1766294656888537e-04  0.0000000000000000e+00  -3.1097996040759191e-04  -3.4083315891510012e-04  -3.3881966062683120e-04  -3.2119982235827418e-04  -2.9622634969649520e-04  -2.6799575755710449e-04  -2.3847170065775079e-04  -2.0853946047285157e-04  -1.7855928244175183e-04  -1.4864717789245098e-04  -1.1881470121854566e-04  -8.9039184398650848e-05  -5.9296562053630630e-05  -2.9570704557822857e-05  1.4736119399278945e-07  2.9862926233612445e-05  5.9581429486114619e-05  8.9312303152474343e-05  1.1907236755480494e-04  1.4888663653562823e-04  1.7877877806564836e-04  2.0873889857546507e-04  2.3865295492851306e-04  2.6816479639979620e-04  2.9639340151875655e-04  3.2138343042679318e-04  3.3904728457250828e-04  3.4113839247480260e-04  3.1137826443739680e-04  2.1807071489288269e-04  0.0000000000000000e+00  -2.1934350490638395e-04  0.0000000000000000e+00  -3.1258695808049559e-04  -3.4177899207386424e-04  -3.3901512624528687e-04  -3.2074726218149334e-04  -2.9528450574795056e-04  -2.6672533132765118e-04  -2.3701579412768666e-04  -2.0702071459928053e-04  -1.7707982517964149e-04  -1.4729183493151257e-04  -1.1765216119040256e-04  -8.8123573304505970e-05  -5.8667833340377464e-05  -2.9254942657088816e-05  1.3795550318581541e-07  2.9530048781547775e-05  5.8940658499017495e-05  8.8392959356380893e-05  1.1791739329173404e-04  1.4755247911915566e-04  1.7733576891018664e-04  2.0727157235070307e-04  2.3726163315659953e-04  2.6696590093340229e-04  2.9552056911906531e-04  3.2098016966700284e-04  3.3924983832953873e-04  3.4202334198767082e-04  3.1284426272085831e-04  2.1957420422779252e-04  0.0000000000000000e+00  -2.1852254687319819e-04  0.0000000000000000e+00  -3.1084833870648730e-04  -3.3935471291015381e-04  -3.3619166432271571e-04  -3.1776769754521646e-04  -2.9232564978592544e-04  -2.6390522001019858e-04  -2.3440947927733371e-04  -2.0467490231318921e-04  -1.7502544539644288e-04  -1.4555016829497134e-04  -1.1623994239748056e-04  -8.7053969880435616e-05  -5.7951057512225662e-05  -2.8897709486097735e-05  1.3285113851991494e-07  2.9164094988930323e-05  5.8219593977341223e-05  8.7326406283410788e-05  1.1651816464556382e-04  1.4583609241708984e-04  1.7532021788622701e-04  2.0497879142427464e-04  2.3472008420767935e-04  2.6421755410381971e-04  2.9262946984494315e-04  3.1804701413977774e-04  3.3642581172269492e-04  3.3952274189427630e-04  3.1093896373820303e-04  2.1854643105414872e-04  0.0000000000000000e+00  -2.1494107385472419e-04  0.0000000000000000e+00  -3.0544625672457071e-04  -3.3326833579504038e-04  -3.3011070861962787e-04  -3.1207588345083396e-04  -2.8720802671249355e-04  -2.5942520465923414e-04  -2.3056350197900264e-04  -2.0142787329549897e-04  -1.7233193764642325e-04  -1.4336738614139795e-04  -1.1453203713889852e-04  -8.5794388116844014e-05  -5.7121270634313453e-05  -2.8486125653024581e-05  1.3229769196260538e-07  2.8752636612369162e-05  5.7393668448397333e-05  8.6076831850321611e-05  1.1482882365843863e-04  1.4368224226652928e-04  1.7266784216192024e-04  2.0178504247986954e-04  2.3093842819658160e-04  2.5980733149754667e-04  2.8757653791832783e-04  3.1239624929499317e-04  3.3033475800825165e-04  3.3334373201073826e-04  3.0534506923308286e-04  2.1473018474624413e-04  0.0000000000000000e+00  -2.0839632438495175e-04  0.0000000000000000e+00  -2.9614376085053206e-04  -3.2331890509760950e-04  -3.2062527858884037e-04  -3.0357288072395449e-04  -2.7986556167449654e-04  -2.5323807659223329e-04  -2.2543852506097165e-04  -1.9724145298475771e-04  -1.6896118310982136e-04  -1.4070483043578864e-04  -1.1249239969116482e-04  -8.4313763068987233e-05  -5.6155454910693045e-05  -2.8007259137262353e-05  1.3790403216745825e-07  2.8285923592309041e-05  5.6442790266982170e-05  8.4615892331496294e-05  1.1281530383033230e-04  1.4105417106820940e-04  1.6934085881897519e-04  1.9765264290314574e-04  2.2587580973003557e-04  2.5368597786689501e-04  2.8029271779380895e-04  3.0392552524605566e-04  3.2082716157463641e-04  3.2328416691968377e-04  2.9582669330811964e-04  2.0792532620240366e-04  0.0000000000000000e+00  -1.9874219588058488e-04  0.0000000000000000e+00  -2.8278304860723433e-04  -3.0938915653092904e-04  -3.0766480376014994e-04  -2.9222096664283635e-04  -2.7027518832937813e-04  -2.4531983263577096e-04  -2.1900164087588074e-04  -1.9207111874764595e-04  -1.6485850813813046e-04  -1.3750368467229063e-04  -1.1006310951428961e-04  -8.2561805665326918e-05  -5.5015712686256928e-05  -2.7439500323124649e-05  1.5311070390536851e-07  2.7749098441834564e-05  5.5335650617398889e-05  8.2899237446391292e-05  1.1042531578562209e-04  1.3789704342752668e-04  1.6528820012294418e-04  1.9253806049922642e-04  2.1949896237045974e-04  2.4582727153378515e-04  2.7075075290535383e-04  2.9259262037575169e-04  3.0782780036251128e-04  3.0922332856559576e-04  2.8222490468971287e-04  1.9798673423843200e-04  0.0000000000000000e+00  -1.8587218364491325e-04  0.0000000000000000e+00  -2.6525621326441742e-04  -2.9140282919456887e-04  -2.9117738982835839e-04  -2.7797094130780823e-04  -2.5837151728774803e-04  -2.3557866977171827e-04  -2.1113283257650416e-04  -1.8577541938887213e-04  -1.5987160101634657e-04  -1.3361215073982892e-04  -1.0710581815811985e-04  -8.0423271002950209e-05  -5.3618631984425052e-05  -2.6736675523116902e-05  1.8384683120152093e-07  2.7107852446493869e-05  5.4000357293328961e-05  8.0822967066195820e-05  1.0753061179347024e-04  1.3406871311548934e-04  1.6036450201783789e-04  1.8630500425756674e-04  2.1168983464916563e-04  2.3613747685194062e-04  2.5888066415527083e-04  2.7834082757837732e-04  2.9127580988016534e-04  2.9107663397268292e-04  2.6442550327518427e-04  1.8480507912891738e-04  0.0000000000000000e+00  -1.6967121347012673e-04  0.0000000000000000e+00  -2.4342217924241179e-04  -2.6920779333620932e-04  -2.7098003998222802e-04  -2.6058661066760534e-04  -2.4385484928657293e-04  -2.2365710959538977e-04  -2.0143412298659130e-04  -1.7793817753000317e-04  -1.5359105077472653e-04  -1.2865132402131244e-04  -1.0329141790535640e-04  -7.7635793998864146e-05  -5.1780032572830347e-05  -2.5800950894137302e-05  2.3787016154054048e-07  2.6279760847463541e-05  5.2268234557400217e-05  7.8139685587789466e-05  1.0381707477905484e-04  1.2920346953382804e-04  1.5417249356126662e-04  1.7854623888625802e-04  2.0205522386712411e-04  2.2425974741328405e-04  2.4437768642123566e-04  2.6092391865774144e-04  2.7097529993671702e-04  2.6867814355264932e-04  2.4227547164316996e-04  1.6825740531154721e-04  0.0000000000000000e+00  -1.4990683922361421e-04  0.0000000000000000e+00  -2.1691004632074618e-04  -2.4229848807584160e-04  -2.4641310741193613e-04  -2.3925323220652612e-04  -2.2578122291866368e-04  -2.0852647669689818e-04  -1.8884541377945434e-04  -1.6752119419592899e-04  -1.4504710889223882e-04  -1.2175877748703040e-04  -9.7896108848722298e-05  -7.3636362685370856e-05  -4.9114202012162224e-05  -2.4433618778916355e-05  3.2193156466124133e-07  2.5079811211371587e-05  4.9767284457849169e-05  7.4300677846720110e-05  9.8574765056582629e-05  1.2245316780042778e-04  1.4575518060134669e-04  1.6823442914915191e-04  1.8954310207337612e-04  2.0916812259423132e-04  2.2629460897042144e-04  2.3951793803195660e-04  2.4625223602575073e-04  2.4150600685664801e-04  2.1538923585607948e-04  1.4809960634984726e-04  0.0000000000000000e+00  -1.2599512281382449e-04  0.0000000000000000e+00  -1.8467728573166113e-04  -2.0919272532295328e-04  -2.1558755082628890e-04  -2.1175688231390546e-04  -2.0172990118935002e-04  -1.8768776396828365e-04  -1.7090839391304815e-04  -1.5220699930137350e-04  -1.3214292410248439e-04  -1.1111786792261462e-04  -8.9425936428784902e-05  -6.7283889713213652e-05  -4.4851762703790683e-05  -2.2248764667488980e-05  4.3345577615644899e-07  2.3117026036326892e-05  4.5723879713173133e-05  6.8161262216021357e-05  9.0307933883610229e-05  1.1200028174946886e-04  1.3301668455491987e-04  1.5305443945698492e-04  1.7169766653077529e-04  1.8836622869698285e-04  2.0221191496509310e-04  2.1190738747743889e-04  2.1521453234687397e-04  2.0807679214454748e-04  1.8272583062267216e-04  1.2374720457711144e-04  0.0000000000000000e+00  -9.6464257841661288e-05  0.0000000000000000e+00  -1.4398739023569409e-04  -1.6603378821264137e-04  -1.7376604758114012e-04  -1.7279136612296739e-04  -1.6614470685235997e-04  -1.5561671628334145e-04  -1.4235801953938916e-04  -1.2716107999496802e-04  -1.1059661441602051e-04  -9.3083220889593715e-05  -7.4927181532148847e-05  -5.6350105567362266e-05  -3.7510435815186089e-05  -1.8520642006949463e-05  5.3697831741498285e-07  1.9595166905349399e-05  3.8586091341441924e-05  5.7425734854894376e-05  7.5998122490554293e-05  9.4139823208810853e-05  1.1162198632286531e-04  1.2812758002319998e-04  1.4322222474745934e-04  1.5631302994576017e-04  1.6657458032718017e-04  1.7280930408379732e-04  1.7317406941083700e-04  1.6461119592732856e-04  1.4164806825485963e-04  9.3812042153159085e-05  0.0000000000000000e+00  -5.7630861919241141e-05  0.0000000000000000e+00  -8.7996975002069074e-05  -1.0348855288457025e-04  -1.0996397038476223e-04  -1.1054626796139553e-04  -1.0708666597496856e-04  -1.0078197891298592e-04  -9.2457882406369042e-05  -8.2708356905851547e-05  -7.1969157356413180e-05  -6.0559759410198680e-05  -4.8710847534204886e-05  -3.6585141708946968e-05  -2.4294263141145245e-05  -1.1913104303127890e-05  5.0746470048102458e-07  1.2928214563733516e-05  2.5309333056988721e-05  3.7597935537131521e-05  4.9715553267346699e-05  6.1545094082895914e-05  7.2916406369346232e-05  8.3588243568574394e-05  9.3226522117707323e-05  1.0137608748359013e-04  1.0741542601792619e-04  1.1048141403557992e-04  1.0933608315851536e-04  1.0210872035689092e-04  8.5777552158222738e-05  5.5070667449000792e-05  0.0000000000000000e+00  0.0000000000000000e+00  0.0000000000000000e+00  0.0000000000000000e+00  0.0000000000000000e+00  0.0000000000000000e+00  0.0000000000000000e+00  0.0000000000000000e+00  0.0000000000000000e+00  0.0000000000000000e+00  0.0000000000000000e+00  0.0000000000000000e+00  0.0000000000000000e+00  0.0000000000000000e+00  0.0000000000000000e+00  0.0000000000000000e+00  0.0000000000000000e+00  0.0000000000000000e+00  0.0000000000000000e+00  0.0000000000000000e+00  0.0000000000000000e+00  0.0000000000000000e+00  0.0000000000000000e+00  0.0000000000000000e+00  0