<?xml version="1.0"?>
<VTKFile type="UnstructuredGrid"  version="0.1"  >
<UnstructuredGrid>
<Piece  NumberOfPoints="825" NumberOfCells="1536">
<Points>
<DataArray  type="Float64"  NumberOfComponents="3"  format="ascii">-1.447207223628677e-22 0.5 0  0.06249999740397128 0.500000098534142 0  0.06249985987047697 0.5625001174086115 0  -1.372732681979772e-07 0.5625000067671808 0  0.124999985504757 0.5000001942747341 0  0.1249998481465754 0.5625002081982735 0  0.1874999629177843 0.5000002921503819 0  0.1874998274115441 0.5625002926352277 0  0.2499999282159417 0.5000003801919058 0  0.2499997968999421 0.5625003701607856 0  0.3124998812216794 0.500000464517508 0  0.3124997556035657 0.5625004378766345 0  0.37499981531188 0.5000005298144989 0  0.3749997023169965 0.5625004870419684 0  0.4374997134592017 0.5000005449410247 0  0.4374996348679392 0.5625005060147622 0  0.4999995872063427 0.5000005201294675 0  0.4999995534171613 0.5625004928902024 0  0.5624994514247582 0.5000004678680172 0  0.5624994629055801 0.5625004543011303 0  0.6249993214661393 0.5000004043480311 0  0.6249993703988113 0.5625003989155853 0  0.6874992016014227 0.5000003307747501 0  0.6874992816563295 0.5625003314376434 0  0.7499990922014119 0.5000002466112017 0  0.7499992001583304 0.5625002549671376 0  0.8124989999950915 0.5000001614299218 0  0.8124991292684721 0.562500173881548 0  0.8749989277149158 0.5000000758168616 0  0.8749990715233114 0.5625000906375309 0  0.9374988749670732 0.4999999900076214 0  0.937499028235898 0.5625000070962074 0  0.9999988441294493 0.4999999077461001 0  0.9999990003180267 0.5624999251294406 0  1.062498829486609 0.4999998232519988 0  1.062498987457489 0.5624998452983158 0  1.124998836113564 0.49999974878142 0  1.124998989588 0.5624997707708812 0  1.187498864407529 0.4999996817906204 0  1.187499006981009 0.5624997035362925 0  1.249998907624541 0.4999996190944135 0  1.249999038287312 0.5624996442990822 0  1.312498969912716 0.4999995727191698 0  1.312499082410317 0.5624995964373316 0  1.374999050124927 0.4999995402228141 0  1.374999138535336 0.5624995619966543 0  1.437499140385875 0.4999995187000111 0  1.437499204195312 0.5624995418627342 0  1.499999243763244 0.4999995214363079 0  1.499999277273593 0.5624995396154429 0  1.56249935706256 0.4999995461478043 0  1.562499356136559 0.5624995565485871 0  1.624999471457962 0.4999995878780961 0  1.624999437799787 0.5624995912332118 0  1.687499589064186 0.4999996537264066 0  1.687499519540325 0.5624996428637025 0  1.749999704306992 0.4999997321353892 0  1.749999598534918 0.5624997073850191 0  1.812499806673995 0.4999998126792363 0  1.812499670454319 0.5624997794467421 0  1.874999897066912 0.4999998989197585 0  1.874999731396215 0.5624998564137496 0  1.93749996729845 0.4999999694144827 0  1.937499776063123 0.5624999386631389 0  2 0.5 0  1.99999979227347 0.5625000710075095 0  0.06249974592000825 0.6250001407648899 0  -2.535089215659923e-07 0.6250000469423855 0  0.1249997384547468 0.6250002217385056 0  0.1874997230806894 0.6250002949983662 0  0.2499996998730991 0.6250003608097724 0  0.3124996690067083 0.6250004160805367 0  0.3749996305918199 0.6250004550491504 0  0.4374995840897994 0.6250004714952828 0  0.4999995292997027 0.6250004631005084 0  0.5624994679140037 0.6250004325826244 0  0.6249994033806996 0.6250003848486692 0  0.6874993395358454 0.6250003242747613 0  0.749999279527078 0.6250002544231226 0  0.8124992260096076 0.6250001786172825 0  0.8749991811453406 0.6250000996079372 0  0.9374991463947605 0.6250000195987331 0  0.9999991226679645 0.6249999404272338 0  1.062499110236464 0.6249998637588864 0  1.124999109070063 0.624999791636886 0  1.187499119032926 0.6249997260266751 0  1.24999913941269 0.6249996686238704 0  1.312499169249647 0.6249996215288427 0  1.37499920749833 0.6249995866848655 0  1.437499252586152 0.6249995656897199 0  1.499999302853746 0.6249995602915557 0  1.562499356772963 0.62499957138573 0  1.624999412419924 0.6249995984596178 0  1.687499467663139 0.624999640109537 0  1.749999520099867 0.624999693780238 0  1.812499566508286 0.6249997565159696 0  1.874999602933527 0.6249998272255102 0  1.937499624358495 0.6249999108467577 0  1.99999962927473 0.6250000233323599 0  0.06249965946650034 0.6875001682448945 0  -3.403488108704335e-07 0.6875000957554042 0  0.1249996551794341 0.6875002357202665 0  0.1874996452111492 0.6875002973232877 0  0.2499996294588813 0.6875003518262889 0  0.3124996082894093 0.6875003963867974 0  0.3749995819936241 0.6875004269555947 0  0.4374995504923961 0.6875004396679153 0  0.4999995137036716 0.6875004327235891 0  0.5624994723093473 0.6875004071035626 0  0.6249994280110581 0.6875003656078205 0  0.687499383086089 0.6875003115248201 0  0.7499993398130085 0.6875002480137405 0  0.8124993002461044 0.6875001780036567 0  0.874999266115285 0.6875001041029192 0  0.9374992387280218 0.6875000285686768 0  0.999999218949676 0.6874999533809055 0  1.062499207204554 0.687499880397581 0  1.124999203584104 0.6874998114999648 0  1.187499207928987 0.687499748538386 0  1.249999219765191 0.687499693295369 0  1.312499238372882 0.6874996475634761 0  1.37499926285769 0.68749961302693 0  1.437499292109134 0.6874995911485954 0  1.499999324915558 0.6874995830985224 0  1.562499360036459 0.6874995894159528 0  1.624999396066626 0.6874996097543543 0  1.687499431376076 0.6874996429355485 0  1.749999464018597 0.6874996871211383 0  1.812499491569004 0.6874997404064519 0  1.874999511278127 0.6874998019801793 0  1.937499521133522 0.6874998731121268 0  1.999999523061862 0.6874999537615043 0  0.06249959817012739 0.7500001974259247 0  -4.017561024761614e-07 0.7500001448663788 0  0.1249995958591147 0.7500002502959859 0  0.1874995900215864 0.7500002999011202 0  0.2499995803198381 0.7500003436655575 0  0.3124995668986922 0.7500003787557407 0  0.3749995499346329 0.7500004020546801 0  0.437499529423932 0.7500004108520966 0  0.4999995053300162 0.7500004037255377 0  0.562499477953435 0.7500003809396208 0  0.6249994481510237 0.7500003441190469 0  0.6874994172321107 0.750000295601141 0  0.7499993866947896 0.7500002379441739 0  0.8124993580135804 0.7500001736783992 0  0.8749993325024521 0.7500001051814638 0  0.9374993112210075 0.7500000346283356 0  0.9999992949234825 0.7499999640097232 0  1.062499284048631 0.7499998951988731 0  1.124999278755032 0.7499998300098798 0  1.187499278959329 0.749999770200884 0  1.24999928434921 0.7499997174617521 0  1.312499294418545 0.7499996733992527 0  1.374999308509219 0.7499996394730843 0  1.4374993258373 0.7499996169036103 0  1.499999345539138 0.7499996065516057 0  1.562499366691332 0.7499996087455097 0  1.624999388263981 0.7499996231525756 0  1.687499409065102 0.7499996487823913 0  1.749999427699572 0.749999684132065 0  1.812499442608396 0.7499997274915424 0  1.874999452407009 0.7499997772280442 0  1.937499456775575 0.7499998312697751 0  1.999999457566668 0.7499998841558417 0  0.06249955769183799 0.8125002261194211 0  -4.422995108488201e-07 0.8125001906717763 0  0.1249995566058673 0.8125002650596197 0  0.1874995535997483 0.812500303010112 0  0.2499995482785645 0.8125003367081363 0  0.3124995405703322 0.8125003632863302 0  0.3749995304791541 0.812500380111394 0  0.4374995179467493 0.8125003850649952 0  0.4999995029056336 0.8125003769527044 0  0.5624994854586021 0.8125003557152288 0  0.624999466020731 0.8125003223079684 0  0.6874994453195168 0.812500278373726 0  0.749999424283986 0.8125002259127199 0  0.8124994039083947 0.8125001670482577 0  0.8749993851361541 0.8125001038850089 0  0.9374993687730412 0.8125000384368195 0  0.9999993554317534 0.8124999726075521 0  1.062499345508769 0.8124999082051946 0  1.124999339189798 0.8124998469598587 0  1.187499336467909 0.8124997905245995 0  1.249999337163671 0.812499740460625 0  1.312499340952485 0.8124996982065338 0  1.374999347395805 0.8124996650228674 0  1.437499355969977 0.8124996419132841 0  1.49999936609192 0.8124996295250776 0  1.562499377127361 0.8124996280402904 0  1.62499938837423 0.8124996370964931 0  1.687499399043374 0.8124996557729198 0  1.749999408272509 0.812499682643004 0  1.812499415234355 0.8124997158362141 0  1.874999419419556 0.8124997529119391 0  1.93749942106829 0.812499790155725 0  1.999999421348006 0.8124998209175206 0  0.06249953379359984 0.8750002529385952 0  -4.662428197782715e-07 0.8750002315735329 0  0.1249995334532886 0.8750002794675429 0  0.1874995322730693 0.8750003066705833 0  0.2499995299115694 0.8750003311267055 0  0.3124995261804797 0.875000350021653 0  0.374999520950349 0.8750003610036753 0  0.4374995140812779 0.8750003622763344 0  0.4999995054441645 0.8750003527775382 0  0.5624994950109825 0.8750003322811586 0  0.6249994829410178 0.8750003013417449 0  0.6874994696048597 0.8750002611161992 0  0.7499994555419984 0.8750002131498417 0  0.8124994413835154 0.8750001591922633 0  0.8749994277702643 0.8750001010652473 0  0.9374994152831606 0.8750000405807544 0  0.9999994043931152 0.8749999794989253 0  1.062499395433359 0.8749999195118981 0  1.124999388592215 0.8749998622365261 0  1.187499383919715 0.8749998092027547 0  1.249999381342312 0.8749997618319515 0  1.312499380683447 0.874999721401935 0  1.374999381687006 0.8749996889958742 0  1.43749938403974 0.8749996654355832 0  1.499999387388699 0.8749996512035384 0  1.562499391348912 0.8749996463644927 0  1.624999395502655 0.87499965050416 0  1.687499399404484 0.8749996626959561 0  1.749999402616618 0.8749996814822781 0  1.812499404802622 0.8749997048131124 0  1.874999405882575 0.8749997298264848 0  1.937499406162159 0.8749997523451598 0  1.999999406212355 0.874999766076622 0  0.06249952280696006 0.9375002771463962 0  -4.772599086822607e-07 0.9375002670703568 0  0.1249995229023921 0.9375002930620675 0  0.1874995228388965 0.9375003107316405 0  0.2499995223686787 0.9375003268951525 0  0.3124995212695705 0.9375003388960648 0  0.3749995193370878 0.9375003445959983 0  0.4374995163660679 0.9375003423994457 0  0.4999995121677529 0.9375003313267791 0  0.5624995066207126 0.9375003110561055 0  0.6249994997242759 0.9375002818879592 0  0.6874994916235573 0.937500244638332
[...]
<PointData  Scalars="p"> 
<DataArray  type="Float64"  Name="p"  format="ascii">0.0000000000000000e+00  -4.5473684040663606e-04  -4.7785034721389819e-04  0.0000000000000000e+00  -7.9252140889993108e-04  -8.0675227767746077e-04  -1.0276990830057912e-03  -1.0298449815596706e-03  -1.1783868530594412e-03  -1.1709116049969000e-03  -1.2602269186708897e-03  -1.2462213011925193e-03  -1.2857611430800175e-03  -1.2678627567229068e-03  -1.2650147347083749e-03  -1.2452519065298802e-03  -1.2060501440292945e-03  -1.1859572200920415e-03  -1.1155083501993765e-03  -1.0962322324612438e-03  -9.9899578652803533e-04  -9.8139487818503556e-04  -8.6136620042900414e-04  -8.4608229104453988e-04  -7.0694224204724673e-04  -6.9443121634850901e-04  -5.3959271886469594e-04  -5.3017880272830263e-04  -3.6284742691085028e-04  -3.5675470055377307e-04  -1.8002836399587564e-04  -1.7738314549001666e-04  5.7092681297663806e-06  4.8581034238335477e-06  1.9130428398452705e-04  1.8698122295531953e-04  3.7375017265941330e-04  3.6602872521938835e-04  5.4996930052519184e-04  5.3897615113479244e-04  7.1660364087850045e-04  7.0260244718612578e-04  8.7015630993717333e-04  8.5349850370899699e-04  1.0068417688699834e-03  9.8799605126587402e-04  1.1223394848898138e-03  1.1019991548050735e-03  1.2118857215061983e-03  1.1909512213313835e-03  1.2700409363444719e-03  1.2496842879877602e-03  1.2902660015124195e-03  1.2720945109341525e-03  1.2647321379880539e-03  1.2508383788055405e-03  1.1837083051334431e-03  1.1767451513479367e-03  1.0346659859085938e-03  1.0377301261552372e-03  8.0167878892153639e-04  8.1693442875667508e-04  4.6496070438160648e-04  4.8801891096868645e-04  0.0000000000000000e+00  0.0000000000000000e+00  -5.2112021166086193e-04  0.0000000000000000e+00  -8.4230015799591543e-04  -1.0445750342010713e-03  -1.1656281163045566e-03  -1.2256075619169566e-03  -1.2369825815078009e-03  -1.2084929442611365e-03  -1.1468499965829652e-03  -1.0575335123176927e-03  -9.4522378823748898e-04  -8.1404819924303532e-04  -6.6772461514192608e-04  -5.0965521424220061e-04  -3.4300377469615465e-04  -1.7076370587738252e-04  4.1907300447814968e-06  1.7905511753663677e-04  3.5103858833417383e-04  5.1729311351183041e-04  6.7484046835776816e-04  8.2054061032970315e-04  9.5103549366059952e-04  1.0626590362105871e-03  1.1513648430074219e-03  1.2125913061295959e-03  1.2410035873337269e-03  1.2300758311816814e-03  1.1712294935842238e-03  1.0519371518998863e-03  8.5137361894656186e-04  5.2957905924449220e-04  0.0000000000000000e+00  -5.6623554178288483e-04  0.0000000000000000e+00  -8.8748017763610326e-04  -1.0720986555597910e-03  -1.1722230882855495e-03  -1.2140498185291932e-03  -1.2119147002769145e-03  -1.1746355726596105e-03  -1.1083575848585825e-03  -1.0178398897796341e-03  -9.0707391947034111e-04  -7.7958373651937352e-04  -6.3857153714066820e-04  -4.8700711924623070e-04  -3.2769243665277235e-04  -1.6330710720852229e-04  3.5554209704605559e-06  1.7035042077886579e-04  3.3453919341720984e-04  4.9354148255539040e-04  6.4469295559648973e-04  7.8521261296114070e-04  9.1216368147593332e-04  1.0223914856833576e-03  1.1124443568616236e-03  1.1784301319194455e-03  1.2157158006401291e-03  1.2183089738505299e-03  1.1775080271511566e-03  1.0788925187802277e-03  8.9563408052330544e-04  5.7366660929072336e-04  0.0000000000000000e+00  -6.1067819359908611e-04  0.0000000000000000e+00  -9.3779786128775757e-04  -1.1099344619874610e-03  -1.1916637221757796e-03  -1.2156348503655700e-03  -1.1989473038808024e-03  -1.1512250630883100e-03  -1.0785017192119243e-03  -9.8505789209888035e-04  -8.7430318296971750e-04  -7.4918842897394027e-04  -6.1239204537683013e-04  -4.6642207366238384e-04  -3.1367698954056275e-04  -1.5647824512887899e-04  2.9076684545489272e-06  1.6224500649145829e-04  3.1930064542177869e-04  4.7181589233866937e-04  6.1748082103170682e-04  7.5391500341561444e-04  8.7863552682218397e-04  9.8900394558690328e-04  1.0821323293168969e-03  1.1546968208735202e-03  1.2025273665131680e-03  1.2197223377508975e-03  1.1967529576526186e-03  1.1164281764883281e-03  9.4551144935890849e-04  6.1766253661036112e-04  0.0000000000000000e+00  -6.5539547617229508e-04  0.0000000000000000e+00  -9.9220725385214671e-04  -1.1561030901100818e-03  -1.2224125587032384e-03  -1.2299156399218957e-03  -1.1987821339310154e-03  -1.1398809962950957e-03  -1.0595033843923138e-03  -9.6170562340763604e-04  -8.4946999342982250e-04  -7.2525839106252622e-04  -5.9126547209267853e-04  -4.4954909983993839e-04  -3.0209825357261423e-04  -1.5086004789432187e-04  2.2477783155870477e-06  1.5532407529442527e-04  3.0646909705709459e-04  4.5376921188358254e-04  5.9528626450666559e-04  7.2904440473350678e-04  8.5300644552950393e-04  9.6500994507177894e-04  1.0626462229678083e-03  1.1430096999266043e-03  1.2021434458703794e-03  1.2338737879387194e-03  1.2274160402636586e-03  1.1625105435057661e-03  9.9981353676767285e-04  6.6228781699403277e-04  0.0000000000000000e+00  -7.0158863801081850e-04  0.0000000000000000e+00  -1.0506169886605342e-03  -1.2091423955657976e-03  -1.2623904710681098e-03  -1.2548758474223458e-03  -1.2098349757754345e-03  -1.1395627456776889e-03  -1.0508261731020988e-03  -9.4764412062255132e-04  -8.3270836839720601e-04  -7.0808367412611331e-04  -5.7553819157146855e-04  -4.3671203574128338e-04  -2.9319938761522774e-04  -1.4657687263608030e-04  1.5897433023982113e-06  1.4974086267161796e-04  2.9631723038416058e-04  4.3975534964541007e-04  5.7848364503829000e-04  7.1091859943052524e-04  8.3543478344979714e-04  9.5029052270017894e-04  1.0534661523669843e-03  1.1423367809722934e-03  1.2129748698953451e-03  1.2587228592508503e-03  1.2673635621975737e-03  1.2155748348243480e-03  1.0582939811932311e-03  7.0858536024205653e-04  0.0000000000000000e+00  -7.4989644031055853e-04  0.0000000000000000e+00  -1.1127775860402995e-03  -1.2676435536365432e-03  -1.3093952471950462e-03  -1.2880113473575149e-03  -1.2296784848740588e-03  -1.1481364436158796e-03  -1.0507153866531496e-03  -9.4150044456499371e-04  -8.2298668587872041e-04  -6.9691698882797762e-04  -5.6468914104998045e-04  -4.2756427312537324e-04  -2.8676771480595342e-04  -1.4352184209440224e-04  9.4904693740177022e-07  1.4541959284379680e-04  2.8866428289459588e-04  4.2945892127901084e-04  5.6658403512311098e-04  6.9881983330042654e-04  8.2491713383401981e-04  9.4349754905144717e-04  1.0528553825838887e-03  1.1505550410512715e-03  1.2325941376805521e-03  1.2917461152319554e-03  1.3143498946239377e-03  1.2741390970034650e-03  1.1205977520841110e-03  7.5708724497339534e-04  0.0000000000000000e+00  -8.0021335340926673e-04  0.0000000000000000e+00  -1.1778430719808556e-03  -1.3298977058749926e-03  -1.3610675557188799e-03  -1.3266402196288043e-03  -1.2556049645892019e-03  -1.1630756068756619e-03  -1.0569417109906869e-03  -9.4138854247804548e-04  -8.1876435702733731e-04  -6.9054193478176353e-04  -5.5779454562980546e-04  -4.2144266013700860e-04  -2.8237288362289314e-04  -1.4147765292935044e-04  3.4045714607398202e-07  1.4217265913075460e-04  2.8310946043309039e-04  4.2224696371509734e-04  5.5869214255457314e-04  6.9156124707925825e-04  8.1993916463820574e-04  9.4276858347483667e-04  1.0586057788929558e-03  1.1651524340417373e-03  1.2583004566666361e-03  1.3302587718658481e-03  1.3659935786723093e-03  1.3364486464280912e-03  1.1858071026446010e-03  8.0760813982420595e-04  0.0000000000000000e+00  -8.5168458264095882e-04  0.0000000000000000e+00  -1.2442238663335678e-03  -1.3937033977959815e-03  -1.4147864252914578e-03  -1.3679490765905336e-03  -1.2848148111680082e-03  -1.1817509047907801e-03  -1.0671436963955250e-03  -9.4526465363638788e-04  -8.1833069532592979e-04  -6.8757445904084227e-04  -5.5378002950623548e-04  -4.1756163662634219e-04  -2.7949933947978164e-04  -1.4018442311653943e-04  -2.2440989594133003e-07  1.3976342049851575e-04  2.7916056379504752e-04  4.1735664138616013e-04  5.5375742279135563e-04  6.8778061220778342e-04  8.1881422028912772e-04  9.4608192517205624e-04  1.0683757073722232e-03  1.1835195103291911e-03  1.2873093437265665e-03  1.3714544810191117e-03  1.4196687273088358e-03  1.4002729073500331e-03  1.2522772657380392e-03  8.5922558898576177e-04  0.0000000000000000e+00  -9.0275781931009602e-04  0.0000000000000000e+00  -1.3095764686588825e-03  -1.4563022762949249e-03  -1.4676104784271402e-03  -1.4089829161607332e-03  -1.3144743006444708e-03  -1.2015449844271250e-03  -1.0789828024915513e-03  -9.5110094708542275e-04  -8.1997835791725016e-04  -6.8662301175870960e-04  -5.5155690069606778e-04  -4.1512024070508872e-04  -2.7761953841528599e-04  -1.3937763253760510e-04  -7.3832422036616701e-07  1.3794172427595389e-04  2.7630438217472752e-04  4.1400168771630865e-04  5.5070527847403340e-04  6.8610308408400275e-04  8.1985042062842077e-04  9.5142940770391495e-04  1.0798460175455112e-03  1.2030567647655468e-03  1.3168045255535471e-03  1.4123893247729700e-03  1.4724316705204291e-03  1.4628316807931739e-03  1.3176146776009510e-03  9.1032520396609415e-04  0.0000000000000000e+00  -9.5126646017382947e-04  0.0000000000000000e+00  -1.3708737874476289e-03  -1.5144146604029857e-03  -1.5162886834818984e-03  -1.4466636133218154e-03  -1.3417513747371321e-03  -1.2199159336205904e-03  -1.0902259358902384e-03  -9.5697948955029684e-04  -8.2209900594923575e-04  -6.8637753483556392e-04  -5.5009924499528683e-04  -4.1336260128202484e-04  -2.7623594968274548e-04  -1.3880944879262003e-04  -1.1989267237628884e-06  1.3646460617178173e-04  2.7404822758109957e-04  4.1143110450813085e-04  5.4851552104541554e-04  6.8522376818919931e-04  8.2144858384316469e-04  9.5690098029010723e-04  1.0907968839375848e-03  1.2212343451994563e-03  1.3439649492457480e-03  1.4499912457101830e-03  1.5210271798594102e-03  1.5208210567342340e-03  1.3787452758114811e-03  9.5868066150446942e-04  0.0000000000000000e+00  -9.9454118975221594e-04  0.0000000000000000e+00  -1.4245380596507244e-03  -1.5643459498602098e-03  -1.5573445976919060e-03  -1.4778511188493933e-03  -1.3638765906945542e-03  -1.2344547079720862e-03  -1.0988082806024373e-03  -9.6115353231680464e-04  -8.2324256460004767e-04  -6.8566289368395417e-04  -5.4848929859297433e-04  -4.1161389266855368e-04  -2.7490582694913947e-04  -1.3826221801068765e-04  -1.6099126328105960e-06  1.3510684733799948e-04  2.7194190702169803e-04  4.0896256057715752e-04  5.4626251104581964e-04  6.8396043890356893e-04  8.2214988312239281e-04  9.6074581884106715e-04  1.0991565082867040e-03  1.2356438463611221e-03  1.3660186127004681e-03  1.4811192281433802e-03  1.5619684469486913e-03  1.5705235740482431e-03  1.4320466733343824e-03  1.0015687997285672e-03  0.0000000000000000e+00  -1.0295547674380591e-03  0.0000000000000000e+00  -1.4666205487201660e-03  -1.6021574338467136e-03  -1.5872109185200453e-03  -1.4994540263848549e-03  -1.3782217777383063e-03  -1.2429539064606823e-03  -1.1028829937789857e-03  -9.6209306009824682e-04  -8.2215290840002907e-04  -6.8346944719836961e-04  -5.4594177240457442e-04  -4.0929888450690115e-04  -2.7325432537567644e-04  -1.3755553394133530e-04  -1.9827480551305054e-06  1.3366527131072428e-04  2.6958757408994540e-04  4.0599766272785389e-04  5.4313765305564609e-04  6.8127894651293813e-04  8.2067514677968041e-04  9.6140782242030596e-04  1.1030598624796712e-03  1.2440558799127850e-03  1.3803267158238369e-03  1.5026671756587803e-03  1.5916759418746341e-03  1.6079760213110095e-03  1.4735319847446584e-03  1.0359149505987768e-03  0.0000000000000000e+00  -1.0530967077930398e-03  0.0000000000000000e+00  -1.4930287130518812e-03  -1.6238809736530001e-03  -1.6024122125724643e-03  -1.5085643783409705e-03  -1.3824037515258055e-03  -1.2434694178245773e-03  -1.1008698005352594e-03  -9.5850750959351814e-04  -8.1778538167954931e-04  -6.7896021888206150e-04  -5.4180763519063300e-04  -4.0594250923140136e-04  -2.7097324970337807e-04  -1.3654429359438635e-04  -2.3337149618231099e-06  1.3196201001544828e-04  2.6664428956790195e-04  4.0202847399723363e-04  5.3845849558828299e-04  6.7630984463713632e-04  8.1594505993842477e-04  9.5756693455921135e-04  1.1008925929339088e-03  1.2445027878915653e-03  1.3844780540489326e-03  1.5117074241134841e-03  1.6066501400722429e-03  1.6291839077755435e-03  1.4990721961558443e-03  1.0584695250019551e-03  0.0000000000000000e+00  -1.0619747914198598e-03  0.0000000000000000e+00  -1.4997856744171192e-03  -1.6257674242140924e-03  -1.5997720291370634e-03  -1.5026161011914912e-03  -1.3743888216261539e-03  -1.2343918855740844e-03  -1.0914810772822093e-03  -9.4936162726416543e-04  -8.0929755547438952e-04  -6.7145942411593780e-04  -5.3555638166123524e-04  -4.0115328003082217e-04  -2.6780671810955982e-04  -1.3510809542045620e-04  -2.6782684120451638e-06  1.2984579979217529e-04  2.6282504748893906e-04  3.9663184281325288e-04  5.3166325972775182e-04  6.6834391300516199e-04  8.0708717263509996e-04  9.4815235635531186e-04  1.0913381317843478e-03  1.2353396258988844e-03  1.3764080433808141e-03  1.5056407061895894e-03  1.6036837204509069e-03  1.6303686879095096e-03  1.5046612552158491e-03  1.0660154094399837e-03  0.0000000000000000e+00  -1.0532280962085702e-03  0.0000000000000000e+00  -1.4832960641268389e-03  -1.6045350193843769e-03  -1.5766076332307095e-03  -1.4795214811772564e-03  -1.3525700639325259e-03  -1.2144716964611348e-03  -1.0737191300337896e-03  -9.3383354804235685e-04  -7.9600716228441794e-04  -6.6039637641707031e-04  -5.2672787399996881e-04  -3.9458052003892886e-04  -2.6352010914282422e-04  -1.3313308998066182e-04  -3.0265354073196626e-06  1.2718232174668576e-04  2.5787415552899165e-04  3.8943568164476861e-04  5.2226775933764710e-04  6.5678762710640385e-04  7.9338943291555218e-04  9.3231580389460526e-04  1.0733630363863288e-03  1.2152811272643403e-03  1.3544714796072325e-03  1.4823410446172425e-03  1.5800625766159090e-03  1.6082243432513654e-03  1.4866904613782264e-03  1.0555869099772922e-03  0.0000000000000000e+00  -1.0243195019216116e-03  0.0000000000000000e+00  -1.4405739722760200e-03  -1.5575573142176547e-03  -1.5308474468660532e-03  -1.4377043401014858e-03  -1.3157329028622676e-03  -1.1827241442800309e-03  -1.0467423485207490e-03  -9.1117365867570581e-04  -7.7723404712901978e-04  -6.4516984857746732e-04  -5.1480759951402799e-04  -3.8581823754420269e-04  -2.5783057557150063e-04  -1.3047303134642330e-04  -3.3753380335931648e-06  1.2383143179200788e-04  2.5151452845575527e-04  3.8003753773605193e-04  5.0976090568370994e-04  6.4103589901092243e-04  7.7416820472094527e-04  9.0929141619362991e-04  1.0461047798793388e-03  1.1833134723611362e-03  1.3174162300843009e-03  1.4401962704206571e-03  1.5336816628983983e-03  1.5601022693065298e-03  1.4421692411439356e-03  1.0246564564927133e-03  0.0000000000000000e+00  -9.7325824040382181e-04  0.0000000000000000e+00  -1.3693533399972515e-03  -1.4828931068393190e-03  -1.4609545424394122e-03  -1.3759162763066265e-03  -1.2627798873560672e-03  -1.1381053531769377e-03  -1.0095112018028121e-03  -8.8034970601517395e-04  -7.5198192163629873e-04  -6.2485552606793293e-04  -4.9899265900204745e-04  -3.7421935370597690e-04  -2.5028055436549104e-04  -1.2687976790555023e-04  -3.6971635430915007e-06  1.1960006155975861e-04  2.4334255073566493e-04  3.6784423335311557e-04  4.9338818537625242e-04  6.2021220116938614e-04  7.4846147526911092e-04  8.7807377079306907e-04  1.0085345670097603e-03  1.1383838096005806e-03  1.2641234073684775e-03  1.3779229008348448e-03  1.4629658270193359e-03  1.4840351796801554e-03  1.3688269682174731e-03  9.7125165864180441e-04  0.0000000000000000e+00  -8.9856354133872895e-04  0.0000000000000000e+00  -1.2679276375161870e-03  -1.3789517655148243e-03  -1.3654055512383008e-03  -1.2925673762918337e-03  -1.1919636380841763e-03  -1.0787032713721726e-03  -9.6000550102170567e-04  -8.3931819634976005e-04  -7.1828522417441258e-04  -5.9766334757138456e-04  -4.7774397542165023e-04  -3.5856360779880218e-04  -2.4001117137982100e-04  -1.2188669613045801e-04  -3.9312244889157828e-06  1.1414266746183120e-04  2.3262058328027169e-04  3.5175351251193269e-04  4.7172838518678696e-04  5.9263379310975361e-04  7.1440529127680431e-04  8.3670259525589366e-04  9.5869218217283696e-04  1.0786169013163086e-03  1.1928503209488106e-03  1.2939091655320577e-03  1.3663586595121270e-03  1.3784040093387862e-03  1.2649535933678116e-03  8.9391399238214519e-04  0.0000000000000000e+00  -7.9889787353999513e-04  0.0000000000000000e+00  -1.1343985710520249e-03  -1.2433527529433070e-03  -1.2412189057750989e-03  -1.1840343102623783e-03  -1.0991173365205605e-03  -1.0000014803868101e-03  -8.9359716795631323e-04  -7.8357519303375793e-04  -6.7196246548891804e-04  -5.5989287988924153e-04  -4.4796552932601410e-04  -3.3643945148649777e-04  -2.2535419148155271e-04  -1.1460062368390540e-04  -3.9759930041197164e-06  1.0676920104767756e-04  2.1788122978677119e-04  3.2955391494482369e-04  4.4187785033524148e-04  5.5478914348905243e-04  6.6799152039117302e-04  7.8083005818253826e-04  8.9208297601931722e-04  9.9959258080779085e-04  1.0994868773663272e-03  1.1845511723418802e-03  1.2408692257962063e-03  1.2408166740945654e-03  1.1286635342102882e-03  7.9133630941504449e-04  0.0000000000000000e+00  -6.7202573273676864e-04  0.0000000000000000e+00  -9.6466603168380118e-04  -1.0700692794521993e-03  -1.0805209857188143e-03  -1.0409636471767814e-03  -9.7396745281621579e-04  -8.9141148315310806e-04  -7.9992430436907783e-04  -7.0341941733509362e-04  -6.0429851497575948e-04  -5.0403931904174112e-04  -4.0350648391423885e-04  -3.0314362973993242e-04  -2.0310318513116888e-04  -1.0334135454821677e-04  -3.6889411608965977e-06  9.6082503285365321e-05  1.9619786110980640e-04  2.9681318071455177e-04  3.9795026096655235e-04  4.9942265818050155e-04  6.0074206945584388e-04  7.0097471746949206e-04  7.9854013686015833e-04  8.9089277543035210e-04  9.7389801796799824e-04  1.0405976742271510e-03  1.0787050512749343e-03  1.0653364375023215e-03  9.5597312290967174e-04  6.6138880708703908e-04  0.0000000000000000e+00  -5.1217341640075284e-04  0.0000000000000000e+00  -7.4745508170304435e-04  -8.4273651103483344e-04  -8.6295383395008831e-04  -8.4052320062959326e-04  -7.9274261129802222e-04  -7.2952659346496671e-04  -6.5693532450101513e-04  -5.7884157631027942e-04  -4.9776285907489890e-04  -4.1530790270767826e-04  -3.3244351680180651e-04  -2.4967993126033333e-04  -1.6720924795421221e-04  -8.5007240015022161e-05  -2.9162131245087736e-06  7.9284658955258965e-05  1.6181116124589187e-04  2.4480609134986845e-04  3.2826583699808635e-04  4.1195924064159822e-04  4.9532042137288444e-04  5.7730272656902285e-04  6.5618430114852645e-04  7.2929088542827763e-04  7.9251962305446522e-04  8.3948162968084587e-04  8.5986634441740739e-04  8.3608424829633452e-04  7.3621580259444590e-04  4.9883578582625291e-04  0.0000000000000000e+00  -3.0325234018870154e-04  0.0000000000000000e+00  -4.5224694671865459e-04  -5.1953358152999568e-04  -5.3958967971237410e-04  -5.3075927680661811e-04  -5.0375796972954403e-04  -4.6529162625270659e-04  -4.1974572447298823e-04  -3.7004436216819049e-04  -3.1812649458507375e-04  -2.6523413623878543e-04  -2.1210665980021497e-04  -1.5912457366943169e-04  -1.0641853270655150e-04  -5.3953055834155817e-05  -1.5909672299470643e-06  5.0851286743666807e-05  1.0355314655977919e-04  1.5663806992032047e-04  2.1011757884774985e-04  2.6382453043330406e-04  3.1732795370170578e-04  3.6981600727590983e-04  4.1994570610044473e-04  4.6564147526437498e-04  5.0378369745337017e-04  5.2971698450678692e-04  5.3641590646399994e-04  5.1292332959754986e-04  4.4127334154516731e-04  2.9003987013334522e-04  0.0000000000000000e+00  0.0000000000000000e+00  0.0000000000000000e+00  0.0000000000000000e+00  0.0000000000000000e+00  0.0000000000000000e+00  0.0000000000000000e+00  0.0000000000000000e+00  0.0000000000000000e+00  0.0000000000000000e+00  0.0000000000000000e+00  0.0000000000000000e+00  0.0000000000000000e+00  0.0000000000000000e+00  0.0000000000000000e+00  0.0000000000000000e+00  0.0000000000000000e+00  0.0000000000000000e+00  0.0000000000000000e+00  0.0000000000000000e+00  0.0000000000000000e+00  0.0000000000000000e+00  0.0000000000000000e+00  0.00000000