<?xml version="1.0"?>
<VTKFile type="UnstructuredGrid"  version="0.1"  >
<UnstructuredGrid>
<Piece  NumberOfPoints="825" NumberOfCells="1536">
<Points>
<DataArray  type="Float64"  NumberOfComponents="3"  format="ascii">4.627499273972598e-17 0.4999999999999999 0  0.06249999999999996 0.3748261625573329 0  0.1060778080080489 0.4058360359825037 0  0.04859486777831735 0.4534948111752856 0  0.1249999999999999 0.2948314843482039 0  0.1605489023002436 0.3470193902961607 0  0.1874999999999999 0.2368925853057787 0  0.2159152701057754 0.2978821245669105 0  0.2499999999999998 0.1924540929437259 0  0.27290864133168 0.2580432955227903 0  0.3124999999999998 0.15744000680124 0  0.3311387721271662 0.225671421099408 0  0.3749999999999997 0.1294854248712816 0  0.3902518533333434 0.1992756569462331 0  0.4374999999999997 0.1070324225517978 0  0.4500069714113894 0.1777293174866859 0  0.4999999999999997 0.08897398559785674 0  0.5102409360182399 0.1601705291605962 0  0.5624999999999997 0.07448805019056692 0  0.5708390402494938 0.1459286984272735 0  0.6249999999999997 0.06294909798205478 0  0.6317171827716518 0.1344767968013745 0  0.6874999999999997 0.05387613624106186 0  0.692811187134561 0.1253998993688298 0  0.7499999999999997 0.04689981009930388 0  0.7540702248139427 0.1183737074342757 0  0.8124999999999997 0.04174058128629143 0  0.8154525761961575 0.1131494853108381 0  0.8749999999999997 0.03819387840247646 0  0.8769227508652394 0.1095433817997796 0  0.9374999999999997 0.03612001300585382 0  0.9384494121684864 0.1074289593367152 0  0.9999999999999997 0.03543763085938179 0  1.000003776946946 0.1067322398414972 0  1.0625 0.03612001300585399 0  1.061558281922912 0.1074288689155864 0  1.125 0.03819387840247623 0  1.123085370468599 0.1095431914560467 0  1.1875 0.04174058128629166 0  1.184556280058265 0.1131491743984694 0  1.25 0.04689981009930344 0  1.245939710882776 0.1183732403662476 0  1.3125 0.05387613624106186 0  1.307200229952733 0.1253992184068676 0  1.375 0.06294909798205467 0  1.368296203468887 0.1344758087869261 0  1.4375 0.07448805019056759 0  1.429176930947708 0.1459272499561417 0  1.5 0.08897398559785702 0  1.489778431542076 0.1601683584229405 0  1.5625 0.1070324225517978 0  1.550016916361094 0.1777259563881006 0  1.625 0.1294854248712818 0  1.609778211706746 0.1992702215163968 0  1.6875 0.15744000680124 0  1.668900110534763 0.2256621407521635 0  1.75 0.1924540929437261 0  1.727143475272989 0.2580264551722502 0  1.8125 0.2368925853057792 0  1.784154530117946 0.2978500994459914 0  1.875 0.2948314843482039 0  1.839496560118052 0.3469600372640964 0  1.9375 0.3748261625573334 0  1.893479284500546 0.4058786620231737 0  2 0.5 0  1.952431582145234 0.453572249932613 0  0.1224742131290055 0.4317741249551053 0  0.0615202245842021 0.4544044700818965 0  0.1792423296316754 0.3934723868388122 0  0.2343110835822981 0.3549571745055961 0  0.2896168042588901 0.3208776862140421 0  0.3457851967564443 0.2918519086421349 0  0.4028638335875663 0.2674792451482726 0  0.4607420403898247 0.2471695497479314 0  0.5192853599923108 0.2303565205143681 0  0.5783708454893387 0.2165473041881099 0  0.6378933741380399 0.2053284227056998 0  0.6977641725086813 0.1963603885673064 0  0.7579076990872546 0.1893701456762379 0  0.8182585746204604 0.1841439846504965 0  0.8787589315091766 0.1805216645016171 0  0.9393561759684397 0.1783918918120246 0  1.000001063272859 0.177689142700581 0  1.060645974904197 0.1783917804225478 0  1.121243293563734 0.1805214318727483 0  1.181743778295784 0.1841436097285899 0  1.242094841970964 0.1893695932474873 0  1.302238627088767 0.1963596041860052 0  1.362109768668478 0.2053273247667934 0  1.42163274433507 0.216545772522149 0  1.480718804456454 0.230354382567278 0  1.539262849397331 0.247166573044294 0  1.597141918634876 0.2674751740739126 0  1.654221271890337 0.2918466922751044 0  1.710388226769957 0.3208724179275418 0  1.765679170464903 0.3549570315810708 0  1.820687820402279 0.3934871469954026 0  1.87749758621275 0.4317675267336098 0  1.938806041208044 0.4544531186605733 0  0.1283470883604143 0.4630384823457444 0  0.06650293507379625 0.4749737390366521 0  0.1874364632648531 0.4383426718598164 0  0.2442107838864751 0.409542459279849 0  0.3000490329771504 0.3815690301352344 0  0.355907826769903 0.3563400171779051 0  0.4122221195406479 0.3343557911410771 0  0.4691292265520887 0.3155599997808472 0  0.5266305031263842 0.2997030715245441 0  0.5846722235254984 0.2864876255517037 0  0.643181697348992 0.2756259580206974 0  0.7020825185278259 0.2668622261016441 0  0.7613005252244665 0.2599801833919316 0  0.8207656642638248 0.2548049641957128 0  0.8804120559793633 0.2512025371631914 0  0.9401772767896808 0.2490784437353056 0  1.000001310785547 0.2483765705178806 0  1.059825368899152 0.249078308899045 0  1.119590663015431 0.2512022597636046 0  1.179237180122959 0.2548045284327756 0  1.238702501584447 0.2599795648967007 0  1.297920754811838 0.2668613918773146 0  1.356821895675111 0.2756248683357206 0  1.415331772068698 0.2864862414819197 0  1.473373982585291 0.2997013767653887 0  1.530875812163514 0.3155580556969322 0  1.58778338104687 0.3343538620000241 0  1.644097381768636 0.3563388082238399 0  1.699952867878733 0.3815698691677383 0  1.755780285634377 0.4095458329879195 0  1.812542636461471 0.4383430742621496 0  1.871678821550154 0.4630377533081435 0  1.933626294906227 0.4749938784452215 0  0.1297306737483462 0.5000686078982105 0  0.06759422055333604 0.5062619679737477 0  0.1901116751014 0.4839439391531649 0  0.2484886301401498 0.462834280053658 0  0.3055199062940571 0.4405422031459173 0  0.3619716612934746 0.4192230860230457 0  0.4183786053394203 0.3998668557374199 0  0.4750346244517961 0.3828223268325863 0  0.5320703708851806 0.3681243460550335 0  0.5895216669224681 0.3556676579085981 0  0.6473732335078758 0.3452944253558605 0  0.7055836743223285 0.3368375798350176 0  0.7640990387647324 0.330142143687588 0  0.8228599248992469 0.3250755652439706 0  0.8818050211774504 0.3215325559384179 0  0.9408727020839887 0.3194372043615263 0  1.000001572171477 0.3187437960357318 0  1.059130466781058 0.3194370741209434 0  1.118198221997609 0.3215322918581779 0  1.177143444591327 0.3250751607539276 0  1.235904512648132 0.3301415908856088 0  1.294420119225041 0.3368368730441562 0  1.352630866656182 0.345293568307572 0  1.410482803887638 0.3556666773585456 0  1.467934515591583 0.3681233154248638 0  1.524970643647344 0.382821400778706 0  1.581626760129958 0.3998662979116268 0  1.638032875817705 0.4192231968786815 0  1.694481782843708 0.4405428599608365 0  1.751508418373519 0.4628339596613418 0  1.809886853760768 0.4839417167718603 0  1.870292723115218 0.5000707336427829 0  1.932470971523887 0.5062737462596891 0  0.1287165103755658 0.5418565022563027 0  0.06644293055328905 0.5446385913810812 0  0.1898189265597054 0.531283605797469 0  0.2493493406351112 0.5159118376592149 0  0.3075385998364289 0.4984535241279696 0  0.3648715210985191 0.4808168281941311 0  0.4218057975689477 0.4641304868409785 0  0.4786707915005252 0.4489729213483267 0  0.5356676718573744 0.4355879316978298 0  0.5929010970286663 0.4240332343592034 0  0.6504112183422365 0.414271234180446 0  0.7081976131915163 0.4062217411986864 0  0.7662352438310236 0.3997919359685643 0  0.8244845314255191 0.3948932337155077 0  0.8828975271367744 0.3914506954531827 0  0.9414216268837712 0.3894082039571789 0  1.000001803038376 0.3887312161906754 0  1.058582003063321 0.3894080872918289 0  1.11710617486389 0.39145046213805 0  1.175519292028469 0.3948928847498461 0  1.233768752024226 0.3997914754970159 0  1.291806606693454 0.4062211802729771 0  1.349593273940363 0.414270596500889 0  1.407103701194479 0.4240325636337164 0  1.464337421604899 0.4355872974631386 0  1.521334475943019 0.4489724122637429 0  1.578199290422978 0.464130163106509 0  1.635132678810232 0.4808165852171731 0  1.692463877896906 0.4984529010864445 0  1.750651930718047 0.5159103554238402 0  1.810185928359542 0.5312827219697391 0  1.871301481603242 0.541858929889063 0  1.933595629121441 0.5446467817906692 0  0.1263068936282691 0.587448142837061 0  0.06395812812043986 0.5880982792563794 0  0.1878373613932063 0.5805923865669584 0  0.2481567754122281 0.5694380149028271 0  0.307285408537376 0.5558985561114695 0  0.3654897431084083 0.541519218514958 0  0.4231021371918653 0.52737168889338 0  0.4804150324607118 0.5141185679185644 0  0.5376441644718666 0.5021276851210841 0  0.5949296085754738 0.4915755557898435 0  0.6523505467203582 0.4825235111734883 0  0.7099416687260016 0.4749686965151161 0  0.7677068608647355 0.4688766592224892 0  0.8256294104075088 0.4642016517181467 0  0.8836792258091395 0.4608990686357947 0  0.9418178516968665 0.458932919098438 0  1.000001997258551 0.4582801402967618 0  1.058186164720929 0.4589328176739272 0  1.116324856309757 0.4608988677978731 0  1.174374780973939 0.4642013561997426 0  1.232297482013197 0.4688762778622169 0  1.290062863504958 0.4749682441016279 0  1.347654201180996 0.4825230100099259 0  1.405075354620743 0.4915750350021668 0  1.462360958252012 0.5021271733813486 0  1.519590093745053 0.5141180721850811 0  1.576902694717225 0.5273711531787451 0  1.634514407080675 0.5415184851420098 0  1.692717941184565 0.5558974585413765 0  1.751846781613263 0.5694368540701251 0  1.812169318114866 0.5805924904791117 0  1.873707019351204 0.5874502946886633 0  1.936067160965767 0.5881042779614785 0  0.1230750827851257 0.6360963875983356 0  0.06068160921680874 0.6353824246757961 0  0.1848739246744377 0.6317918153576384 0  0.2457342799076113 0.6237398590457457 0  0.305581886073258 0.613304358443729 0  0.3645416785555401 0.6016948655273757 0  0.4228322017793038 0.5898478784709811 0  0.4806832460393208 0.578418643118358 0  0.5382910387713792 0.5678288990684522 0  0.5958027925478814 0.5583286692683576 0  0.6533176482176892 0.5500515130897941 0  0.7108943741682792 0.5430570766542877 0  0.7685605226524904 0.5373614217879634 0  0.8263207508271044 0.5329576908390601 0  0.8841636304004951 0.5298297552870599 0  0.9420669965760898 0.5279609545551283
[...]
<PointData  Scalars="p"> 
<DataArray  type="Float64"  Name="p"  format="ascii">0.0000000000000000e+00  0.0000000000000000e+00  0.0000000000000000e+00  0.0000000000000000e+00  0.0000000000000000e+00  0.0000000000000000e+00  0.0000000000000000e+00  0.0000000000000000e+00  0.0000000000000000e+00  0.0000000000000000e+00  0.0000000000000000e+00  0.0000000000000000e+00  0.0000000000000000e+00  0.0000000000000000e+00  0.0000000000000000e+00  0.0000000000000000e+00  0.0000000000000000e+00  0.0000000000000000e+00  0.0000000000000000e+00  0.0000000000000000e+00  0.0000000000000000e+00  0.0000000000000000e+00  0.0000000000000000e+00  0.0000000000000000e+00  0.0000000000000000e+00  0.0000000000000000e+00  0.0000000000000000e+00  0.0000000000000000e+00  0.0000000000000000e+00  0.0000000000000000e+00  0.0000000000000000e+00  0.0000000000000000e+00  0.0000000000000000e+00  0.0000000000000000e+00  0.0000000000000000e+00  0.0000000000000000e+00  0.0000000000000000e+00  0.0000000000000000e+00  0.0000000000000000e+00  0.0000000000000000e+00  0.0000000000000000e+00  0.0000000000000000e+00  0.0000000000000000e+00  0.0000000000000000e+00  0.0000000000000000e+00  0.0000000000000000e+00  0.0000000000000000e+00  0.0000000000000000e+00  0.0000000000000000e+00  0.0000000000000000e+00  0.0000000000000000e+00  0.0000000000000000e+00  0.0000000000000000e+00  0.0000000000000000e+00  0.0000000000000000e+00  0.0000000000000000e+00  0.0000000000000000e+00  0.0000000000000000e+00  0.0000000000000000e+00  0.0000000000000000e+00  0.0000000000000000e+00  0.0000000000000000e+00  0.0000000000000000e+00  0.0000000000000000e+00  0.0000000000000000e+00  0.0000000000000000e+00  0.0000000000000000e+00  0.0000000000000000e+00  0.0000000000000000e+00  0.0000000000000000e+00  0.0000000000000000e+00  0.0000000000000000e+00  0.0000000000000000e+00  0.0000000000000000e+00  0.0000000000000000e+00  0.0000000000000000e+00  0.0000000000000000e+00  0.0000000000000000e+00  0.0000000000000000e+00  0.0000000000000000e+00  0.0000000000000000e+00  0.0000000000000000e+00  0.0000000000000000e+00  0.0000000000000000e+00  0.0000000000000000e+00  0.0000000000000000e+00  0.0000000000000000e+00  0.0000000000000000e+00  0.0000000000000000e+00  0.0000000000000000e+00  0.0000000000000000e+00  0.0000000000000000e+00  0.0000000000000000e+00  0.0000000000000000e+00  0.0000000000000000e+00  0.0000000000000000e+00  0.0000000000000000e+00  0.0000000000000000e+00  0.0000000000000000e+00  0.0000000000000000e+00  0.0000000000000000e+00  0.0000000000000000e+00  0.0000000000000000e+00  0.0000000000000000e+00  0.0000000000000000e+00  0.0000000000000000e+00  0.0000000000000000e+00  0.0000000000000000e+00  0.0000000000000000e+00  0.0000000000000000e+00  0.0000000000000000e+00  0.0000000000000000e+00  0.0000000000000000e+00  0.0000000000000000e+00  0.0000000000000000e+00  0.0000000000000000e+00  0.0000000000000000e+00  0.0000000000000000e+00  0.0000000000000000e+00  0.0000000000000000e+00  0.0000000000000000e+00  0.0000000000000000e+00  0.0000000000000000e+00  0.0000000000000000e+00  0.0000000000000000e+00  0.0000000000000000e+00  0.0000000000000000e+00  0.0000000000000000e+00  0.0000000000000000e+00  0.0000000000000000e+00  0.0000000000000000e+00  0.0000000000000000e+00  0.0000000000000000e+00  0.0000000000000000e+00  0.0000000000000000e+00  0.0000000000000000e+00  0.0000000000000000e+00  0.0000000000000000e+00  0.0000000000000000e+00  0.0000000000000000e+00  0.0000000000000000e+00  0.0000000000000000e+00  0.0000000000000000e+00  0.0000000000000000e+00  0.0000000000000000e+00  0.0000000000000000e+00  0.0000000000000000e+00  0.0000000000000000e+00  0.0000000000000000e+00  0.0000000000000000e+00  0.0000000000000000e+00  0.0000000000000000e+00  0.0000000000000000e+00  0.0000000000000000e+00  0.0000000000000000e+00  0.0000000000000000e+00  0.0000000000000000e+00  0.0000000000000000e+00  0.0000000000000000e+00  0.0000000000000000e+00  0.0000000000000000e+00  0.0000000000000000e+00  0.0000000000000000e+00  0.0000000000000000e+00  0.0000000000000000e+00  0.0000000000000000e+00  0.0000000000000000e+00  0.0000000000000000e+00  0.0000000000000000e+00  0.0000000000000000e+00  0.0000000000000000e+00  0.0000000000000000e+00  0.0000000000000000e+00  0.0000000000000000e+00  0.0000000000000000e+00  0.0000000000000000e+00  0.0000000000000000e+00  0.0000000000000000e+00  0.0000000000000000e+00  0.0000000000000000e+00  0.0000000000000000e+00  0.0000000000000000e+00  0.0000000000000000e+00  0.0000000000000000e+00  0.0000000000000000e+00  0.0000000000000000e+00  0.0000000000000000e+00  0.0000000000000000e+00  0.0000000000000000e+00  0.0000000000000000e+00  0.0000000000000000e+00  0.0000000000000000e+00  0.0000000000000000e+00  0.0000000000000000e+00  0.0000000000000000e+00  0.0000000000000000e+00  0.0000000000000000e+00  0.0000000000000000e+00  0.0000000000000000e+00  0.0000000000000000e+00  0.0000000000000000e+00  0.0000000000000000e+00  0.0000000000000000e+00  0.0000000000000000e+00  0.0000000000000000e+00  0.0000000000000000e+00  0.0000000000000000e+00  0.0000000000000000e+00  0.0000000000000000e+00  0.0000000000000000e+00  0.0000000000000000e+00  0.0000000000000000e+00  0.0000000000000000e+00  0.0000000000000000e+00  0.0000000000000000e+00  0.0000000000000000e+00  0.0000000000000000e+00  0.0000000000000000e+00  0.0000000000000000e+00  0.0000000000000000e+00  0.0000000000000000e+00  0.0000000000000000e+00  0.0000000000000000e+00  0.0000000000000000e+00  0.0000000000000000e+00  0.0000000000000000e+00  0.0000000000000000e+00  0.0000000000000000e+00  0.0000000000000000e+00  0.0000000000000000e+00  0.0000000000000000e+00  0.0000000000000000e+00  0.0000000000000000e+00  0.0000000000000000e+00  0.0000000000000000e+00  0.0000000000000000e+00  0.0000000000000000e+00  0.0000000000000000e+00  0.0000000000000000e+00  0.0000000000000000e+00  0.0000000000000000e+00  0.0000000000000000e+00  0.0000000000000000e+00  0.0000000000000000e+00  0.0000000000000000e+00  0.0000000000000000e+00  0.0000000000000000e+00  0.0000000000000000e+00  0.0000000000000000e+00  0.0000000000000000e+00  0.0000000000000000e+00  0.0000000000000000e+00  0.0000000000000000e+00  0.0000000000000000e+00  0.0000000000000000e+00  0.0000000000000000e+00  0.0000000000000000e+00  0.0000000000000000e+00  0.0000000000000000e+00  0.0000000000000000e+00  0.0000000000000000e+00  0.0000000000000000e+00  0.0000000000000000e+00  0.0000000000000000e+00  0.0000000000000000e+00  0.0000000000000000e+00  0.0000000000000000e+00  0.0000000000000000e+00  0.0000000000000000e+00  0.0000000000000000e+00  0.0000000000000000e+00  0.0000000000000000e+00  0.0000000000000000e+00  0.0000000000000000e+00  0.0000000000000000e+00  0.0000000000000000e+00  0.0000000000000000e+00  0.0000000000000000e+00  0.0000000000000000e+00  0.0000000000000000e+00  0.0000000000000000e+00  0.0000000000000000e+00  0.0000000000000000e+00  0.0000000000000000e+00  0.0000000000000000e+00  0.0000000000000000e+00  0.0000000000000000e+00  0.0000000000000000e+00  0.0000000000000000e+00  0.0000000000000000e+00  0.0000000000000000e+00  0.0000000000000000e+00  0.0000000000000000e+00  0.0000000000000000e+00  0.0000000000000000e+00  0.0000000000000000e+00  0.0000000000000000e+00  0.0000000000000000e+00  0.0000000000000000e+00  0.0000000000000000e+00  0.0000000000000000e+00  0.0000000000000000e+00  0.0000000000000000e+00  0.0000000000000000e+00  0.0000000000000000e+00  0.0000000000000000e+00  0.0000000000000000e+00  0.0000000000000000e+00  0.0000000000000000e+00  0.0000000000000000e+00  0.0000000000000000e+00  0.0000000000000000e+00  0.0000000000000000e+00  0.0000000000000000e+00  0.0000000000000000e+00  0.0000000000000000e+00  0.0000000000000000e+00  0.0000000000000000e+00  0.0000000000000000e+00  0.0000000000000000e+00  0.0000000000000000e+00  0.0000000000000000e+00  0.0000000000000000e+00  0.0000000000000000e+00  0.0000000000000000e+00  0.0000000000000000e+00  0.0000000000000000e+00  0.0000000000000000e+00  0.0000000000000000e+00  0.0000000000000000e+00  0.0000000000000000e+00  0.0000000000000000e+00  0.0000000000000000e+00  0.0000000000000000e+00  0.0000000000000000e+00  0.0000000000000000e+00  0.0000000000000000e+00  0.0000000000000000e+00  0.0000000000000000e+00  0.0000000000000000e+00  0.0000000000000000e+00  0.0000000000000000e+00  0.0000000000000000e+00  0.0000000000000000e+00  0.0000000000000000e+00  0.0000000000000000e+00  0.0000000000000000e+00  0.0000000000000000e+00  0.0000000000000000e+00  0.0000000000000000e+00  0.0000000000000000e+00  0.0000000000000000e+00  0.0000000000000000e+00  0.0000000000000000e+00  0.0000000000000000e+00  0.0000000000000000e+00  0.0000000000000000e+00  0.0000000000000000e+00  0.0000000000000000e+00  0.0000000000000000e+00  0.0000000000000000e+00  0.0000000000000000e+00  0.0000000000000000e+00  0.0000000000000000e+00  0.0000000000000000e+00  0.0000000000000000e+00  0.0000000000000000e+00  0.0000000000000000e+00  0.0000000000000000e+00  0.0000000000000000e+00  0.0000000000000000e+00  0.0000000000000000e+00  0.0000000000000000e+00  0.0000000000000000e+00  0.0000000000000000e+00  0.0000000000000000e+00  0.0000000000000000e+00  0.0000000000000000e+00  0.0000000000000000e+00  0.0000000000000000e+00  0.0000000000000000e+00  0.0000000000000000e+00  0.0000000000000000e+00  0.0000000000000000e+00  0.0000000000000000e+00  0.0000000000000000e+00  0.0000000000000000e+00  0.0000000000000000e+00  0.0000000000000000e+00  0.0000000000000000e+00  0.0000000000000000e+00  0.0000000000000000e+00  0.0000000000000000e+00  0.0000000000000000e+00  0.0000000000000000e+00  0.0000000000000000e+00  0.0000000000000000e+00  0.0000000000000000e+00  0.0000000000000000e+00  0.0000000000000000e+00  0.0000000000000000e+00  0.0000000000000000e+00  0.0000000000000000e+00  0.0000000000000000e+00  0.0000000000000000e+00  0.0000000000000000e+00  0.0000000000000000e+00  0.0000000000000000e+00  0.0000000000000000e+00  0.0000000000000000e+00  0.0000000000000000e+00  0.0000000000000000e+00  0.0000000000000000e+00  0.0000000000000000e+00  0.0000000000000000e+00  0.0000000000000000e+00  0.0000000000000000e+00  0.0000000000000000e+00  0.0000000000000000e+00  0.0000000000000000e+00  0.0000000000000000e+00  0.0000000000000000e+00  0.0000000000000000e+00  0.0000000000000000e+00  0.0000000000000000e+00  0.0000000000000000e+00  0.0000000000000000e+00  0.0000000000000000e+00  0.0000000000000000e+00  0.0000000000000000e+00  0.0000000000000000e+00  0.0000000000000000e+00  0.0000000000000000e+00  0.0000000000000000e+00  0.0000000000000000e+00  0.0000000000000000e+00  0.0000000000000000e+00  0.0000000000000000e+00  0.0000000000000000e+00  0.0000000000000000e+00  0.0000000000000000e+00  0.0000000000000000e+00  0.0000000000000000e+00  0.0000000000000000e+00  0.0000000000000000e+00  0.0000000000000000e+00  0.0000000000000000e+00  0.0000000000000000e+00  0.0000000000000000e+00  0.0000000000000000e+00  0.0000000000000000e+00  0.0000000000000000e+00  0.0000000000000000e+00  0.0000000000000000e+00  0.0000000000000000e+00  0.0000000000000000e+00  0.0000000000000000e+00  0.0000000000000000e+00  0.0000000000000000e+00  0.0000000000000000e+00  0.0000000000000000e+00  0.0000000000000000e+00  0.0000000000000000e+00  0.0000000000000000e+00  0.0000000000000000e+00  0.0000000000000000e+00  0.0000000000000000e+00  0.0000000000000000e+00  0.0000000000000000e+00  0.0000000000000000e+00  0.0000000000000000e+00  0.0000000000000000e+00  0.0000000000000000e+00  0.0000000000000000e+00  0.0000000000000000e+00  0.0000000000000000e+00  0.0000000000000000e+00  0.0000000000000000e+00  0.0000000000000000e+00  0.0000000000000000e+00  0.0000000000000000e+00  0.0000000000000000e+00  0.0000000000000000e+00  0.0000000000000000e+00  0.0000000000000000e+00  0.0000000000000000e+00  0.0000000000000000e+00  0.0000000000000000e+00  0.0000000000000000e+00  0.0000000000000000e+00  0.0000000000000000e+00  0.0000000000000000e+00  0.0000000000000000e+00  0.0000000000000000e+00  0.0000000000000000e+00  0.0000000000000000e+00  0.0000000000000000e+00  0.0000000000000000e+00  0.0000000000000000e+00  0.0000000000000000e+00  0.0000000000000000e+00  0.0000000000000000e+00  0.0000000000000000e+00  0.0000000000000000e+00  0.0000000000000000e+00  0.0000000000000000e+00  0.0000000000000000e+00  0.0000000000000000e+00  0.0000000000000000e+00  0.0000000000000000e+00  0.0000000000000000e+00  0.0000000000000000e+00  0.0000000000000000e+00  0.0000000000000000e+00  0.0000000000000000e+00  0.0000000000000000e+00  0.0000000000000000e+00  0.0000000000000000e+00  0.0000000000000000e+00  0.0000000000000000e+00  0.0000000000000000e+00  0.0000000000000000e+00  0.0000000000000000e+00  0.0000000000000000e+00  0.0000000000000000e+00  0.0000000000000000e+00  0.0000000000000000e+00  0.0000000000000000e+00  0.0000000000000000e+00  0.0000000000000000e+00  0.0000000000000000e+00  0.0000000000000000e+00  0.0000000000000000e+00  0.0000000000000000e+00  0.0000000000000000e+00  0.0000000000000000e+00  0.0000000000000000e+00  0.0000000000000000e+00  0.0000000000000000e+00  0.0000000000000000e+00  0.0000000000000000e+00  0.0000000000000000e+00  0.0000000000000000e+00  0.0000000000000000e+00  0.0000000000000000e+00  0.0000000000000000e+00  0.0000000000000000e+00  0.0000000000000000e+00  0.0000000000000000e+00  0.0000000000000000e+00  0.0000000000000000e+00  0.0000000000000000e+00  0.0000000000000000e+00  0.0000000000000000e+00  0.0000000000000000e+00  0.0000000000000000e+00  0.0000000000000000e+00  0.0000000000000000e+00  0.0000000000000000e+00  0.0000000000000000e+00  0.0000000000000000e+00  0.0000000000000000e+00  0.0000000000000000e+00  0.0000000000000000e+00  0.0000000000000000e+00  0.0000000000000000e+00  0.0000000000000000e+00  0.0000000000000000e+00  0.0000000000000000e+00  0.0000000000000000e+00  0.0000000000000000e+00  0.0000000000000000e+00  0.0000000000000000e+00  0.0000000000000000e+00  0.0000000000000000e+00  0.0000000000000000e+00  0.0000000000000000e+00  0.0000000000000000e+00  0.0000000000000000e+00  0.0000000000000000e+00  0.0000000000000000e+00  0.0000000000000000e+00  0.0000000000000000e+00  0.0000000000000000e+00  0.0000000000000000e+00  0.0000000000000000e+00  0.0000000000000000e+00  0.0000000000000000e+00  0.0000000000000000e+00  0.0000000000000000e+00  0.0000000000000000e+00  0.0000000000000000e+00  0.0000000000000000e+00  0.0000000000000000e+00  0.0000000000000000e+00  0.0000000000000000e+00  0.0000000000000000e+00  0.0000000000000000e+00  0.0000000000000000e+00  0.0000000000000000e+00  0.0000000000000000e+00  0.0000000000000000e+00  0.0000000000000000e+00  0.0000000000000000e+00  0.0000000000000000e+00  0.0000000000000000e+00  0.0000000000000000e+00  0.0000000000000000e+00  0.0000000000000000e+00  0.0000000000000000e+00  0.0000000000000000e+00  0.0000000000000000e+00  0.0000000000000000e+00  0.0000000000000000e+00  0.0000000000000000e+00  0.0000000000000000e+00  0.0000000000000000e+00  0.0000000000000000e+00  0.0000000000000000e+00  0.0000000000000000e+00  0.0000000000000000e+00  0.0000000000000000e+00  0.0000000000000000e+00  0.0000000000000000e+00  0.0000000000000000e+00  0.0000000000000000e+00  0.0000000000000000e+00  0.0000000000000000e+00  0.0000000000000000e+00  0.0000000000000000e+00  0.0000000000000000e+00  0.0000000000000000e+00  0.0000000000000000e+00  0.0000000000000000e+00  0.0000000000000000e+00  0.0000000000000000e+00  0.0000000000000000e+00  0.0000000000000000e+00  0.0000000000000000e+00  0.0000000000000000e+00  0.0000000000000000e+00  0.0000000000000000e+00  0.0000000000000000e+00  0.0000000000000000e+00  0.0000000000000000e+00  0.0000000000000000e+00  0.0000000000000000e+00  0.0000000000000000e+00  0.0000000000000000e+00  0.0000000000000000e+00  0.0000000000000000e+00  0.0000000000000000e+00  0.0000000000000000e+00  0.0000000000000000e+00  0.0000000000000000e+00  0.0000000000000000e+00  0.0000000000000000e+00  0.0000000000000000e+00  0.0000000000000000e+00  0.0000000000000000e+00  0.0000000000000000e+00  0.0000000000000000e+00  0.0000000000000000e+00  0.0000000000000000e+00  0.0000000000000000e+00  0.0000000000000000e+00  0.0000000000000000e+00  0.0000000000000000e+00  0.0000000000000000e+00  0.0000000000000000e+00  0.0000000000000000e+00  0.0000000000000000e+00  0.0000000000000000e+00  0.0000000000000000e+00  0.0000000000000000e+00  0.0000000000000000e+00  0.0000000000000000e+00  0.0000000000000000e+00  0.0000000000000000e+00  0.0000000000000000e+00  0.0000000000000000e+00  0.0000000000000000e+00  0.0000000000000000e+00  0.0000000000000000e+00  0.0000000000000000e+00  0.0000000000000000e+00  0.0000000000000000e+00  0.0000000000000000e+00  0.0000000000000000e+00  0.0000000000000000e+00  0.0000000000000000e+00  0.0000000000000000e+00  0.0000000000000000e+00  0.0000000000000000e+00  0.0000000000000000e+00  0.0000000000000000e+00  0.0000000000000000e+00  0.0000000000000000e+00  0.0000000000000000e+00  0.0000000000000000e+00  0.0000000000000000e+00  0.0000000000000000e+00  0.0000000000000000e+00  0.0000000000000000e+00  0.0000000000000000e+00  0.0000000000000000e+00  0.0000000000000000e+00  0.0000000000000000e+00  0.0000000000000000e+00  0.0000000000000000e+00  0.0000000000000000e+00  0.0000000000000000e+00  0.0000000000000000e+00  0.0000000000000000e+00  0.0000000000000000e+00  0.0000000000000000e+00  0.0000000000000000e+00  0.0000000000000000e+00  0.0000000000000000e+00  0.0000000000000000e+00  0.0000000000000000e+00  0.0000000000000000e+00  0.0000000000000000e+00  0.0000000000000000e+00  0.0000000000000000e+00  0.0000000000000000e+00  0.0000000000000000e+00  0.0000000000000000e+00  0.0000000000000000e+00  0.0000000000000000e+00  0.0000000000000000e+00  0.0000000000000000e+00  0.0000000000000000e+00  0.0000000000000000e+00  0.0000000000000000e+00  0.0000000000000000e+00  0.0000000000000000e+00  0.0000000000000000e+00  0.0000000000000000e+00  0.0000000000000000e+00  0.0000000000000000e+00  0.0000000000000000e+00  0.0000000000000000e+00  0.0000000000000000e+00  0.0000000000000000e+00  0.0000000000000000e+00  0.0000000000000000e+00  0.0000000000000000e+00  0.0000000000000000e+00  0.0000000000000000e+00  0.0000000000000000e+00  0.0000000000000000e+00  0.0000000000000000e+00  0.0000000000000000e+00  0.0000000000000000e+00  0.0000000000000000e+00  0.0000000000000000e+00  0.0000000000000000e+00  0.0000000000000000e+00  0.0000000000000000e+00  0.0000000000000000e+00  0.0000000000000000e+00  0.0000000000000000e+00  0.0000000000000000e+00  0.0000000000000000e+00  0.0000000000000000e+00  0.0000000000000000e+00  0.0000000000000000e+00  0.0000000000000000e+00  0.0000000000000000e+00  0.0000000000000000e+00  0.0000000000000000e+00  0.0000000000000000e+00  0.0000000000000000e+00  0.0000000000000000e+00  0.0000000000000000e+00  0.0000000000000000e+00  0.0000000000000000e+00  0.0000000000000000e+00  0.0000000000000000e+00  0.0000000000000000e+00  0.0000000000000000e+00  0.0000000000000000e+00  0.0000000000000000e+00  0.0000000000000000e+00  0.0000000000000000e+00  0.0000000000000000e+00  0.0000000000000000e+00  0.0000000000000000e+00  0.0000000000000000e+00  0.0000000000000000e+00  0.0000000000000000e+00  0.0000000000000000e+00  0.0000000000000000e+00  0.0000000000000000e+00  0.0000000000000000e+00  0.0000000000000000e+00  0.0000000000000000e+00  0.0000000000000000e+00  0.0000000000000000e+00  0.0000000000000000e+00  0.0000000000000000e+00  0.0000000000000000e+00  0.0000000000000000e+00  0.0000000000000000e+00  0.0000000000000000e+00  0.0000000000000000e+00  0.0000000000000000e+00  0.0000000000000000e+00  0.0000000000000000e+00  0.0000000000000000e+00  0.0000000000000000e+00  0.0000000000000000e+00  0.0000000000000000e+00  0.0000000000000000e+00  0.0000000000000000e+00  0.0000000000000000e+00  0.0000000000000000e+00  0.0000000000000000e+00  0.0000000000000000e+00  0.0000000000000000e+00  0.0000000000000000e+00  0.0000000000000000e+00  0.0000000000000000e+00  0.0000000000000000e+00  </DataArray> 
</PointData> 
</Piece>
</UnstructuredGrid>
</VTKFile>