<?xml version="1.0"?>
<VTKFile type="UnstructuredGrid"  version="0.1"  >
<UnstructuredGrid>
<Piece  NumberOfPoints="825" NumberOfCells="1536">
<Points>
<DataArray  type="Float64"  NumberOfComponents="3"  format="ascii">-1.044928526607418e-21 0.5 0  0.06249999998182717 0.5000000002363474 0  0.06249999882134535 0.562500001170715 0  -2.55711773183217e-09 0.5625000000770773 0  0.1249999998579003 0.5000000002102594 0  0.1249999992518033 0.5625000010855097 0  0.1874999995085309 0.4999999998800246 0  0.1874999991276788 0.5625000005490098 0  0.2499999989491169 0.4999999993543867 0  0.2499999986619401 0.5624999998246334 0  0.3124999981789174 0.4999999986657082 0  0.3124999979158546 0.5624999988525412 0  0.3749999966738765 0.4999999972385051 0  0.3749999968251696 0.5624999976419361 0  0.4374999951254011 0.4999999960208842 0  0.4374999956392057 0.5624999965612115 0  0.4999999937031206 0.4999999949883219 0  0.4999999945525757 0.5624999955285558 0  0.562499992273117 0.4999999935683176 0  0.56249999365159 0.56249999468746 0  0.6249999921938459 0.4999999936725316 0  0.6249999932601722 0.5624999946183367 0  0.6874999928866968 0.4999999944774891 0  0.6874999933674072 0.5624999947557521 0  0.7499999927993355 0.4999999937159 0  0.7499999935401298 0.5624999946444244 0  0.812499993473762 0.4999999941956935 0  0.8124999939613261 0.562499994908087 0  0.8749999945680458 0.4999999948857069 0  0.8749999945747959 0.5624999950641063 0  0.9374999946706475 0.4999999939467406 0  0.937499995062124 0.5624999949076218 0  0.9999999955341977 0.4999999944205375 0  0.9999999956670315 0.5624999951200941 0  1.062499996620338 0.4999999949846851 0  1.062499996333585 0.5624999951904979 0  1.124999996596381 0.4999999939833978 0  1.12499999678491 0.5624999949493314 0  1.187499997246866 0.4999999942925092 0  1.187499997268471 0.562499995075178 0  1.249999998167744 0.499999994869495 0  1.249999997760926 0.5624999951258308 0  1.312499997944893 0.4999999939496944 0  1.312499997992963 0.5624999949165161 0  1.374999998275528 0.499999994269155 0  1.374999998195314 0.5624999950726224 0  1.437499998713685 0.49999999474823 0  1.437499998347089 0.562499995221481 0  1.499999998304799 0.4999999942942404 0  1.499999998231501 0.5624999953813558 0  1.562499998353624 0.4999999953367027 0  1.562499998115519 0.562499996100298 0  1.624999998676409 0.4999999967588139 0  1.624999998073595 0.5624999969523855 0  1.687499998727127 0.4999999974130738 0  1.687499997960403 0.5624999977502781 0  1.749999999084244 0.4999999984253259 0  1.749999997896577 0.5624999987053023 0  1.812499999534495 0.499999999213026 0  1.812499997856234 0.5624999996098916 0  1.874999999767442 0.499999999540922 0  1.874999997717607 0.5625000005835258 0  1.937499999962415 0.4999999999054264 0  1.93749999776161 0.5625000019457314 0  2 0.5 0  2.000000000115444 0.5625000033437575 0  0.06249999796586907 0.6250000012793455 0  -2.977970431061863e-09 0.6250000005449148 0  0.1249999984901333 0.625000001274995 0  0.1874999985645359 0.6250000008025648 0  0.249999998280702 0.6250000000693471 0  0.312499997719348 0.6249999991466282 0  0.3749999969272415 0.6249999981229653 0  0.4374999960295513 0.6249999971379453 0  0.4999999951708649 0.6249999962584674 0  0.5624999944448459 0.6249999956099185 0  0.624999993989933 0.6249999953265206 0  0.6874999938690582 0.6249999952605971 0  0.7499999939616203 0.6249999952619015 0  0.8124999942286849 0.6249999953549938 0  0.8749999946490732 0.6249999954408547 0  0.9374999951097086 0.62499999547456 0  0.9999999956045538 0.6249999955431746 0  1.062499996133735 0.6249999955743097 0  1.12499999660513 0.6249999955416133 0  1.187499997024948 0.6249999955509287 0  1.249999997407088 0.6249999955551829 0  1.312499997673883 0.6249999955384733 0  1.374999997833649 0.6249999956072696 0  1.437499997897973 0.6249999957557995 0  1.499999997818741 0.6249999960334713 0  1.562499997654409 0.6249999965470997 0  1.624999997468015 0.6249999972329724 0  1.687499997248675 0.6249999980340691 0  1.749999997027293 0.6249999989672903 0  1.812499996835295 0.6250000000190331 0  1.874999996737771 0.6250000012403165 0  1.937499997073336 0.6250000025826505 0  1.999999998266562 0.6250000030927836 0  0.06249999749586908 0.6875000010440045 0  -3.025993379714734e-09 0.687500000564263 0  0.1249999978928344 0.6875000010734863 0  0.1874999980199969 0.6875000007119897 0  0.2499999978682383 0.6875000000856404 0  0.3124999974779362 0.6874999992934863 0  0.3749999969054617 0.6874999984280837 0  0.4374999962358947 0.6874999975843517 0  0.4999999955654327 0.6874999968427321 0  0.5624999949807523 0.6874999962827567 0  0.6249999945686332 0.6874999959497732 0  0.6874999943754866 0.6874999957987195 0  0.7499999943774854 0.6874999957585327 0  0.8124999945416266 0.6874999957861171 0  0.8749999948329954 0.6874999958356812 0  0.9374999951987218 0.6874999958809254 0  0.9999999956078511 0.6874999959234624 0  1.062499996036236 0.6874999959486915 0  1.124999996443379 0.6874999959526286 0  1.187499996809019 0.6874999959568171 0  1.249999997119649 0.6874999959657239 0  1.312499997345279 0.687499995990418 0  1.374999997472475 0.6874999960671073 0  1.437499997496061 0.6874999962262073 0  1.4999999974096 0.6874999965064964 0  1.562499997237397 0.6874999969463151 0  1.624999997014714 0.6874999975437183 0  1.68749999676623 0.6874999982831494 0  1.749999996528992 0.6874999991573583 0  1.812499996359491 0.6875000001493572 0  1.874999996356262 0.6875000012048622 0  1.93749999666027 0.687500002109516 0  1.99999999715685 0.6875000024308815 0  0.06249999722561123 0.750000000674093 0  -3.037525841231352e-09 0.750000000356449 0  0.1249999974730534 0.750000000708213 0  0.1874999975785776 0.750000000445822 0  0.2499999974953996 0.7499999999525 0  0.3124999972304258 0.7499999993099195 0  0.3749999968210017 0.7499999985996794 0  0.4374999963255163 0.7499999978994423 0  0.4999999958124455 0.7499999972775007 0  0.5624999953501604 0.7499999967882884 0  0.6249999950000257 0.7499999964571104 0  0.6874999947993872 0.749999996268401 0  0.7499999947518522 0.7499999961845913 0  0.8124999948412678 0.7499999961678822 0  0.8749999950410347 0.7499999961851546 0  0.9374999953178585 0.7499999962140317 0  0.9999999956417619 0.7499999962430975 0  1.062499995985225 0.7499999962644865 0  1.12499999631971 0.7499999962772871 0  1.187499996622081 0.7499999962891167 0  1.249999996872856 0.7499999963095507 0  1.31249999705225 0.7499999963534839 0  1.374999997146356 0.7499999964443606 0  1.437499997148521 0.7499999966092711 0  1.499999997060467 0.7499999968768578 0  1.562499996898469 0.7499999972699107 0  1.624999996689234 0.7499999977951968 0  1.68749999646453 0.7499999984458108 0  1.749999996265259 0.7499999992031782 0  1.812499996144318 0.7500000000255344 0  1.874999996160319 0.7500000008221624 0  1.937499996328943 0.7500000014287653 0  1.999999996508029 0.7500000017009489 0  0.06249999703963466 0.8125000002783235 0  -3.080746702402668e-09 0.8125000000630099 0  0.1249999971753721 0.8125000003080336 0  0.1874999972401747 0.812500000120726 0  0.2499999971858415 0.8124999997467972 0  0.3124999970028385 0.8124999992435483 0  0.3749999967102006 0.8124999986757627 0  0.4374999963460757 0.8124999981063062 0  0.4999999959589539 0.8124999975899162 0  0.5624999955996358 0.8124999971672883 0  0.6249999953133771 0.8124999968580247 0  0.6874999951307725 0.8124999966580162 0  0.7499999950628257 0.8124999965468959 0  0.8124999951041005 0.8124999964986583 0  0.8749999952380103 0.8124999964887178 0  0.9374999954416402 0.8124999964981514 0  0.9999999956904183 0.8124999965145963 0  1.062499995959845 0.8124999965311493 0  1.124999996226053 0.8124999965466585 0  1.187499996467549 0.8124999965655761 0  1.249999996665507 0.8124999965967008 0  1.312499996803766 0.8124999966534693 0  1.374999996870839 0.8124999967540042 0  1.437499996861816 0.8124999969191551 0  1.499999996780208 0.8124999971693667 0  1.562499996639646 0.8124999975196433 0  1.624999996462791 0.8124999979744105 0  1.687499996279197 0.812499998524826 0  1.749999996124018 0.8124999991455252 0  1.812499996033784 0.8124999997875688 0  1.874999996032371 0.8125000003716116 0  1.937499996100938 0.8125000008014031 0  1.999999996154115 0.8125000010325504 0  0.0624999968862058 0.874999999909747 0  -3.161878328953232e-09 0.8749999997575277 0  0.1249999969514744 0.8749999999344142 0  0.1874999969809312 0.8749999998011629 0  0.2499999969370326 0.8749999995225985 0  0.3124999968058259 0.8749999991363613 0  0.3749999965949415 0.8749999986905536 0  0.4374999963280782 0.8749999982340466 0  0.499999996038612 0.8749999978098345 0  0.5624999957631722 0.874999997449858 0  0.6249999955352764 0.8749999971711238 0  0.6874999953794563 0.8749999969750344 0  0.7499999953078665 0.8749999968510639 0  0.8124999953205791 0.8749999967825967 0  0.8749999954081296 0.874999996752138 0  0.9374999955547804 0.8749999967447974 0  0.9999999957415601 0.8749999967498635 0  1.062499995948293 0.8749999967611862 0  1.124999996154965 0.8749999967773261 0  1.187499996342934 0.8749999968013804 0  1.24999999649578 0.8749999968405368 0  1.312499996600139 0.8749999969057186 0  1.37499999664701 0.8749999970108663 0  1.43749999663324 0.8749999971712775 0  1.499999996562809 0.8749999974009232 0  1.56249999644748 0.8749999977088407 0  1.624999996306094 0.8749999980953861 0  1.687499996162685 0.8749999985490591 0  1.749999996043353 0.8749999990435415 0  1.812499995970307 0.8749999995354871 0  1.874999995951504 0.874999999967463 0  1.937499995969259 0.8750000002851281 0  1.999999995983949 0.8750000004724894 0  0.06249999674420412 0.9374999995904151 0  -3.271909482675544e-09 0.9374999994759632 0  0.1249999967703933 0.9374999996120548 0  0.1874999967765643 0.9374999995174746 0  0.249999996737118 0.9374999993113399 0  0.3124999966394845 0.9374999990178819 0  0.3749999964856681 0.9374999986715062 0  0.4374999962899204 0.9374999983089863 0  0.4999999960746612 0.9374999979635726 0  0.5624999958657682 0.9374999976607005 0  0.6249999956878254 0.9374999974153706 0  0.6874999955599874 0.9374999972317715 0 
[...]
<PointData  Scalars="p"> 
<DataArray  type="Float64"  Name="p"  format="ascii">0.0000000000000000e+00  -1.0876191867696119e-06  -1.1670892197910097e-06  0.0000000000000000e+00  -1.8486477866733805e-06  -1.9138144310562194e-06  -2.3278817933789178e-06  -2.3670705591259553e-06  -2.5867744795090954e-06  -2.6051655111827850e-06  -2.6795122068872610e-06  -2.6843629231352423e-06  -2.6495670255523935e-06  -2.6466510959212044e-06  -2.5303850210725879e-06  -2.5235771287433632e-06  -2.3466846482190746e-06  -2.3385518466139705e-06  -2.1171340759241651e-06  -2.1090572272698344e-06  -1.8553338059841620e-06  -1.8479761591829824e-06  -1.5703918454530529e-06  -1.5644074775644148e-06  -1.2699495117437718e-06  -1.2654078454600062e-06  -9.5958981854319694e-07  -9.5632565608559369e-07  -6.4274919870175458e-07  -6.4076040458320761e-07  -3.2220427436564835e-07  -3.2141774725584054e-07  -2.5272268395291358e-10  -5.1022402470984403e-10  3.2175172005142721e-07  3.2033240337329228e-07  6.4205568034901857e-07  6.3938761790268454e-07  9.5841930674102651e-07  9.5449577587335635e-07  1.2685814462508503e-06  1.2631587279958309e-06  1.5688312941132984e-06  1.5617966089402246e-06  1.8537747562699357e-06  1.8452812675054062e-06  2.1165996827672396e-06  2.1068524446140040e-06  2.3473640273844761e-06  2.3371161499036792e-06  2.5323258200324091e-06  2.5231913136980411e-06  2.6535595367538374e-06  2.6480471506655740e-06  2.6864212927734385e-06  2.6886864538704636e-06  2.5978765716173498e-06  2.6141006672629246e-06  2.3451298172313254e-06  2.3827081065069476e-06  1.8729612296435502e-06  1.9369479218437644e-06  1.1150731606752540e-06  1.1919026707130644e-06  0.0000000000000000e+00  0.0000000000000000e+00  -1.3215553785436333e-06  0.0000000000000000e+00  -2.0664612611383866e-06  -2.4760821639667993e-06  -2.6701233725074097e-06  -2.7160555223128592e-06  -2.6564700941391608e-06  -2.5204685393517509e-06  -2.3288259698259640e-06  -2.0967586679556354e-06  -1.8355030735319889e-06  -1.5533149606055954e-06  -1.2564541818399889e-06  -9.4967065477858373e-07  -6.3643649808378892e-07  -3.1938858858444126e-07  -6.5019020737136344e-10  3.1800634544167427e-07  6.3479806334263436e-07  9.4764464233761451e-07  1.2540071495664691e-06  1.5504917520216065e-06  1.8324777179365211e-06  2.0938164826709344e-06  2.3262117549020159e-06  2.5185021999820472e-06  2.6557750663214198e-06  2.7176892978441936e-06  2.6756517156253889e-06  2.4873050907557104e-06  2.0839334854840906e-06  1.3403226457271386e-06  0.0000000000000000e+00  -1.4887747390536013e-06  0.0000000000000000e+00  -2.2545082519841525e-06  -2.6290406565544689e-06  -2.7764908947137364e-06  -2.7817185343967986e-06  -2.6918977910058375e-06  -2.5355765121060962e-06  -2.3314373057819871e-06  -2.0924631090637369e-06  -1.8280513538881400e-06  -1.5451620633880438e-06  -1.2490627072518040e-06  -9.4378698452245688e-07  -6.3242478230037342e-07  -3.1740012001765511e-07  -7.0318083449373739e-10  3.1591842995387891e-07  6.3072180709642524e-07  9.4174604280014508e-07  1.2466235499703870e-06  1.5423239160037739e-06  1.8248826905143840e-06  2.0890904660374325e-06  2.3280263148270243e-06  2.5324043305466945e-06  2.6894971085565340e-06  2.7810327502819012e-06  2.7789486233087021e-06  2.6362992528923516e-06  2.2672628142699789e-06  1.5033330273435563e-06  0.0000000000000000e+00  -1.6513862194563128e-06  0.0000000000000000e+00  -2.4514192047566619e-06  -2.8030692435967997e-06  -2.9095741196974790e-06  -2.8742747446955725e-06  -2.7512963260400141e-06  -2.5705201028156013e-06  -2.3496477357295054e-06  -2.0999890512805360e-06  -1.8293022062116690e-06  -1.5432018608000168e-06  -1.2459011523437484e-06  -9.4065439459301645e-07  -6.3003445962952713e-07  -3.1612878737153116e-07  -7.0007375795819983e-10  3.1466083096124436e-07  6.2836742066717775e-07  9.3867608733891099e-07  1.2435314169508261e-06  1.5403995301435394e-06  1.8260626922928468e-06  2.0963481299515832e-06  2.3457054919470463e-06  2.5665052610642075e-06  2.7476809655921076e-06  2.8719242688980916e-06  2.9098273683597771e-06  2.8075225333796521e-06  2.4609341978289885e-06  1.6631396420157303e-06  0.0000000000000000e+00  -1.8038372952048656e-06  0.0000000000000000e+00  -2.6440055797719418e-06  -2.9823621195647528e-06  -3.0552589875272824e-06  -2.9831154252954796e-06  -2.8276513720199204e-06  -2.6212036164908382e-06  -2.3814488655133510e-06  -2.1186710421694798e-06  -1.8393538114492707e-06  -1.5479232637895322e-06  -1.2475981219472168e-06  -9.4085740289748310e-07  -6.2970521845447834e-07  -3.1581843616504042e-07  -6.5328227539979887e-10  3.1444909477009129e-07  6.2815065830367415e-07  9.3900477849829116e-07  1.2453544019427729e-06  1.5452175040289082e-06  1.8361398789493902e-06  2.1149357716235472e-06  2.3772490652851006e-06  2.6167332363734566e-06  2.8233413637254786e-06  2.9797681799874677e-06  3.0541293110182203e-06  2.9849790738998116e-06  2.6513104859443436e-06  1.8135796314557770e-06  0.0000000000000000e+00  -1.9435309379932355e-06  0.0000000000000000e+00  -2.8248370203770623e-06  -3.1562771815292760e-06  -3.2022577059786191e-06  -3.0981338764730773e-06  -2.9128496106268252e-06  -2.6816029121860172e-06  -2.4226387595956225e-06  -2.1457352614564084e-06  -1.8564715598074750e-06  -1.5583134297491169e-06  -1.2536151101892362e-06  -9.4414137903797520e-07  -6.3133549893934875e-07  -3.1643987515461852e-07  -5.6349173358495180e-10  3.1525433764065128e-07  6.2997503580149431e-07  9.4249476181888395e-07  1.2515805607782626e-06  1.5558059404404420e-06  1.8534225833954792e-06  2.1421083178846867e-06  2.4184673698098651e-06  2.6770528688456623e-06  2.9083125257635314e-06  3.0943464958167820e-06  3.2003712257830900e-06  3.1577104267989890e-06  2.8305348902139143e-06  1.9516700258123070e-06  0.0000000000000000e+00  -2.0684726036981004e-06  0.0000000000000000e+00  -2.9888640330082050e-06  -3.3172737668270323e-06  -3.3419088368170001e-06  -3.2108387375429240e-06  -2.9993982430245315e-06  -2.7455829902072562e-06  -2.4684695496952274e-06  -2.1776690754487285e-06  -1.8781554834663376e-06  -1.5726604219994789e-06  -1.2628288835449482e-06  -9.4980700568579546e-07  -6.3452692616206236e-07  -3.1781446972871703e-07  -4.2979926069548448e-10  3.1690066923799659e-07  6.3345064575748680e-07  9.4846071217191984e-07  1.2611112825730057e-06  1.5704791435658998e-06  1.8754358921198690e-06  2.1743644444459214e-06  2.4645981254864836e-06  2.7412867160149213e-06  2.9950217628916865e-06  3.2070347587265150e-06  3.3397025436950706e-06  3.3179344588727204e-06  2.9932838742592496e-06  2.0751947025951784e-06  0.0000000000000000e+00  -2.1767054561940380e-06  0.0000000000000000e+00  -3.1320778937143374e-06  -3.4596324611586783e-06  -3.4675296004567715e-06  -3.3144015760400996e-06  -3.0809588701182105e-06  -2.8076660359737850e-06  -2.5144621233732202e-06  -2.2109696606416183e-06  -1.9017705635450216e-06  -1.5890548002758353e-06  -1.2739107648777871e-06  -9.5697804138517275e-07  -6.3875369945029108e-07  -3.1969664610832016e-07  -2.5095078359154295e-10  3.1914628705560245e-07  6.3805714971137921e-07  9.5603704759094742e-07  1.2726282713104666e-06  1.5873420008889913e-06  1.8995498516556601e-06  2.2081931792132217e-06  2.5111373651455663e-06  2.8039051641483710e-06  3.0770514502459665e-06  3.3108988419698314e-06  3.4653020832479860e-06  3.4597732612435264e-06  3.1353891690344972e-06  2.1820734690923457e-06  0.0000000000000000e+00  -2.2662567099894312e-06  0.0000000000000000e+00  -3.2510325089621579e-06  -3.5787873708432955e-06  -3.5738903425224615e-06  -3.4034329796475353e-06  -3.1524125524957818e-06  -2.8632974106694956e-06  -2.5567715531118095e-06  -2.2425330346274196e-06  -1.9249086896264516e-06  -1.6056987128616912e-06  -1.2855742811785404e-06  -9.6478422013070756e-07  -6.4348295081749749e-07  -3.2183530025656318e-07  -2.8545930361312321e-11  3.2173694432580132e-07  6.4325989099728773e-07  9.6435093817828280e-07  1.2848452292746708e-06  1.6045907432918073e-06  1.9233504509780555e-06  2.2404727004470971e-06  2.5542073584125824e-06  2.8603099870249374e-06  3.1492214515664540e-06  3.4004726297213180e-06  3.5718550652399572e-06  3.5785647622453708e-06  3.2533142245718669e-06  2.2702655881434131e-06  0.0000000000000000e+00  -2.3352232261522761e-06  0.0000000000000000e+00  -3.3427212480829463e-06  -3.6710245131237515e-06  -3.6568929615343180e-06  -3.4737580456757530e-06  -3.2097837712862102e-06  -2.9088978269447934e-06  -2.5923309499041226e-06  -2.2698428858894988e-06  -1.9455865960583179e-06  -1.6210895428510727e-06  -1.2967293664092156e-06  -9.7247958872745950e-07  -6.4825405110567041e-07  -3.2401283538038642e-07  2.3387839980064537e-10  3.2444802919763663e-07  6.4859049581550432e-07  9.7264883569580858e-07  1.2966607681078461e-06  1.6207131544318835e-06  1.9448359432126595e-06  2.2686688044432942e-06  2.5907136265904426e-06  2.9068826354562978e-06  3.2075119301582944e-06  3.4715285739254342e-06  3.6552049344315566e-06  3.6705387512517373e-06  3.3439988563015143e-06  2.3378329697491387e-06  0.0000000000000000e+00  -2.3818843659296961e-06  0.0000000000000000e+00  -3.4045941645604135e-06  -3.7333802290425158e-06  -3.7134028274037934e-06  -3.5222715895277446e-06  -3.2501521467230350e-06  -2.9418542780248084e-06  -2.6189016941718097e-06  -2.2910609962365241e-06  -1.9623526283026831e-06  -1.6341256988439637e-06  -1.3065756915031561e-06  -9.7951550341974370e-07  -6.5272720100419631e-07  -3.2606726413733235e-07  5.3653620085734481e-10  3.2711751703764566e-07  6.5370816209245677e-07  9.8037838459086806e-07  1.3072689038761077e-06  1.6345945403264616e-06  1.9625421219224816e-06  2.2909185766035703e-06  2.6183941264729327e-06  2.9409764867878447e-06  3.2489630181544048e-06  3.5209184527067690e-06  3.7121735122710864e-06  3.7326887435629540e-06  3.4048608838828848e-06  2.3830365656190204e-06  0.0000000000000000e+00  -2.4047973351866890e-06  0.0000000000000000e+00  -3.4346170510046649e-06  -3.7636158276938951e-06  -3.7411813895520808e-06  -3.5468506691864035e-06  -3.2715984769447523e-06  -2.9604959963093891e-06  -2.6350919553417021e-06  -2.3050688453192773e-06  -1.9743449415625961e-06  -1.6441682026274368e-06  -1.3146606427413472e-06  -9.8558894544764522e-07  -6.5671811770841163e-07  -3.2791096116334307e-07  8.8171837574657045e-10  3.2966191255815517e-07  6.5843096845033165e-07  9.8723618802286929e-07  1.3162110158106262e-06  1.6455853876553670e-06  1.9755845588176001e-06  2.3060807943227782e-06  2.6358186062514288e-06  2.9608890414610475e-06  3.2716141442580746e-06  3.5464848155741862e-06  3.7404873658278928e-06  3.7627502668984453e-06  3.4338470682881870e-06  2.4044287320704374e-06  0.0000000000000000e+00  -2.4028593234489239e-06  0.0000000000000000e+00  -3.4313096119560803e-06  -3.7602201968018090e-06  -3.7388436245634170e-06  -3.5463083856195221e-06  -3.2731482167104697e-06  -2.9640660446291335e-06  -2.6403342667950272e-06  -2.3114709435482522e-06  -1.9813019197611182e-06  -1.6510610128821556e-06  -1.3209011668196720e-06  -9.9066378242755959e-07  -6.6021571869969823e-07  -3.2954299438313633e-07  1.2676910715571785e-09  3.3207624795528856e-07  6.6274228936306067e-07  9.9317736230549780e-07  1.3233915281847471e-06  1.6535091887401423e-06  1.9836774416227644e-06  2.3137215129150125e-06  2.6423879906675460e-06  2.9658170640049739e-06  3.2744617771489938e-06  3.5470064260131971e-06  3.7387434313085300e-06  3.7591969362253377e-06  3.4294722442963468e-06  2.4009076167675824e-06  0.0000000000000000e+00  -2.3753207382904954e-06  0.0000000000000000e+00  -3.3937495772349944e-06  -3.7223883702582901e-06  -3.7058194361335249e-06  -3.5203269745698353e-06  -3.2547071547508874e-06  -2.9526355607931296e-06  -2.6348219319365946e-06  -2.3105213124576409e-06  -1.9835083048420738e-06  -1.6550799071991598e-06  -1.3255438134119759e-06  -9.9493772628982360e-07  -6.6335728402740324e-07  -3.3103220576082699e-07  1.6973829142164181e-09  3.3443460457854149e-07  6.6678236056367647e-07  9.9839949951263051e-07  1.3290510083027262e-06  1.6586320615997883e-06  1.9870845431959949e-06  2.3140756010172590e-06  2.6382592431999043e-06  2.9558068460593798e-06  3.2573719696427000e-06  3.5221385075139933e-06  3.7063408490644967e-06  3.7212029298270014e-06  3.3907974314121005e-06  2.3717166540960808e-06  0.0000000000000000e+00  -2.3217408670201918e-06  0.0000000000000000e+00  -3.3215120647184174e-06  -3.6499493544698717e-06  -3.6422672719451285e-06  -3.4693555325963258e-06  -3.2169324495748596e-06  -2.9269749075483626e-06  -2.6193486234357039e-06  -2.3029849376569275e-06  -1.9816439146130037e-06  -1.6568046502122107e-06  -1.3290484184669356e-06  -9.9874965797448334e-07  -6.6635906884054155e-07  -3.3247458433913067e-07  2.1934504576027500e-09  3.3687683389552684e-07  6.7080783829154996e-07  1.0032750368713914e-06  1.3336765808068010e-06  1.6615479027423812e-06  1.9864962193787532e-06  2.3078975607011544e-06  2.6242164159786637e-06  2.9315956663747369e-06  3.2209664048323575e-06  3.4722810877498972e-06  3.6433876342470930e-06  3.6485499544276064e-06  3.3173584713007581e-06  2.3163923552505141e-06  0.0000000000000000e+00  -2.2418685447408831e-06  0.0000000000000000e+00  -3.2145057474311178e-06  -3.5431863983627256e-06  -3.5488666543302704e-06  -3.3943778452254574e-06  -3.1609656595909888e-06  -2.8882548608386343e-06  -2.5950100865416353e-06  -2.2898127986166139e-06  -1.9764973973501023e-06  -1.6568438153372851e-06  -1.3318634984282591e-06  -1.0024000684477892e-06  -6.6939496068922217e-07  -3.3393142994557239e-07  2.7975277489975610e-09  3.3954596243064252e-07  6.7506829480943969e-07  1.0081725472136886e-06  1.3377698839158618e-06  1.6629091523033339e-06  1.9827192460842351e-06  2.2961491711401358e-06  2.6013356180839979e-06  2.8943210503504280e-06  3.1663350474347073e-06  3.3983520994493721e-06  3.5504953892546472e-06  3.5414526851213092e-06  3.2090055595098927e-06  2.2346427975458622e-06  0.0000000000000000e+00  -2.1354112919234128e-06  0.0000000000000000e+00  -3.0726464770030230e-06  -3.4024444220720861e-06  -3.4263567732798835e-06  -3.2963631018384963e-06  -3.0878188280191307e-06  -2.8373708540089812e-06  -2.5625022875127763e-06  -2.2714695043663232e-06  -1.9683100136415263e-06  -1.6552706016679137e-06  -1.3339385983811351e-06  -1.0057783127429488e-06  -6.7233840983723722e-07  -3.3529762661561694e-07  3.5746802541834295e-09  3.4246429218267458e-07  6.7955880918260262e-07  1.0130896049556428e-06  1.3413766869846327e-06  1.6628572360387959e-06  1.9760477525342032e-06  2.2793079201476580e-06  2.5703001138933886e-06  2.8448345905794279e-06  3.0944140480223618e-06  3.3012299576491753e-06  3.4282952135672416e-06  3.4001412991942050e-06  3.0655443383653759e-06  2.1260893536366728e-06  0.0000000000000000e+00  -2.0016194299934617e-06  0.0000000000000000e+00  -2.8952209412349295e-06  -3.2273107076841616e-06  -3.2745315403776973e-06  -3.1750800188847560e-06  -2.9970351970218199e-06  -2.7735332188697548e-06  -2.5206849345662162e-06  -2.2465403030055877e-06  -1.9555115128689093e-06  -1.6504873619561343e-06  -1.3337946436715267e-06  -1.0076346731077752e-06  -6.7426920901329456e-07  -3.3604588901240994e-07  4.6233159963540750e-09  3.4529954791637980e-07  6.8354502728698425e-07  1.0169515465346387e-06  1.3431677564854270e-06  1.6599252131396817e-06  1.9649970315360818e-06  2.2560088947907213e-06  2.5299680022780573e-06  2.7822870242097452e-06  3.0046436607373354e-06  3.1805331241748917e-06  3.2763969150366274e-06  3.2240028182287762e-06  2.8860600175870958e-06  1.9898239865085797e-06  0.0000000000000000e+00  -1.8385202707071187e-06  0.0000000000000000e+00  -2.6796050159230743e-06  -3.0148585835837217e-06  -3.0900251443222175e-06  -3.0265114205126151e-06  -2.8838504122736341e-06  -2.6913128318546203e-06  -2.4636827894402699e-06  -2.2089862724352891e-06  -1.9322177085177728e-06  -1.6370733822621670e-06  -1.3267335859874948e-06  -1.0042228939966912e-06  -6.7255472404323479e-07  -3.3477296112202862e-07  6.0615175869891993e-09  3.4688117898419244e-07  6.8462108894234155e-07  1.0162219591505521e-06  1.3386400879803790e-06  1.6488499544344325e-06  1.9438090409956302e-06  2.2202830911811951e-06  2.4744675214938410e-06  2.7011874228896527e-06  2.8921163973961991e-06  3.0320293500225920e-06  3.0911694223707467e-06  3.0098124544935611e-06  2.6676300996792939e-06  1.8236323509715930e-06  0.0000000000000000e+00  -1.6414491945623757e-06  0.0000000000000000e+00  -2.4185912997284914e-06  -2.7558378731076138e-06  -2.8615086828310147e-06  -2.8373211153239481e-06  -2.7332775451209638e-06  -2.5746531545909522e-06  -2.3750742193290576e-06  -2.1427484673695655e-06  -1.8833984428663198e-06  -1.6016106880418236e-06  -1.3014418280425660e-06  -9.8670809167468041e-07  -6.6112561973370331e-07  -3.2835631585201296e-07  7.9712628824003280e-09  3.4425043906724921e-07  6.7687507382262668e-07  1.0022189120865300e-06  1.3166140088940901e-06  1.6163347336642170e-06  1.8975387778364162e-06  2.1561158706071970e-06  2.3873702205184407e-06  2.5853939653119045e-06  2.7416771244354054e-06  2.8421327671171915e-06  2.8609610981717469e-06  2.7479594167668760e-06  2.4026904187261229e-06  1.6225464214050995e-06  0.0000000000000000e+00  -1.4000813853026642e-06  0.0000000000000000e+00  -2.0946604614642326e-06  -2.4264138830577467e-06  -2.5594733419594016e-06  -2.5734210579579636e-06  -2.5081712007508470e-06  -2.3850516544912075e-06  -2.2166525730953222e-06  -2.0114014126553938e-06  -1.7756870552744088e-06  -1.5148393533079602e-06  -1.2335957318403156e-06  -9.3634810621499798e-07  -6.2727736212176538e-07  -3.1043061374305903e-07  1.0235178058317172e-08  3.3080828911707512e-07  6.4737771705456850e-07  9.5598296610283729e-07  1.2525685048838246e-06  1.5329326213093786e-06  1.7926535680886970e-06  2.0269312552787746e-06  2.2303217692769664e-06  2.3962591883824180e-06  2.5160210027791889e-06  2.5765653516251241e-06  2.5560560217127266e-06  2.4144174947679932e-06  2.0735551136258778e-06  1.3760716104055159e-06  0.0000000000000000e+00  -1.0918181769180327e-06  0.0000000000000000e+00  -1.6670138954977252e-06  -1.9699486969555650e-06  -2.1145032902170400e-06  -2.1564955531952511e-06  -2.1254076854600018e-06  -2.0384061294840915e-06  -1.9066778257238877e-06  -1.7383556006705175e-06  -1.5399028423620289e-06  -1.3167879597471861e-06  -1.0738372474141251e-06  -8.1545025936785153e-07  -5.4574207134164286e-07  -2.6863366798497296e-07  1.2076846232840492e-08  2.9265342862349747e-07  5.6935788990992221e-07  8.3838562874857590e-07  1.0957975397937853e-06  1.3374514527055484e-06  1.5589038931829903e-06  1.7552567796578240e-06  1.9209265069151716e-06  2.0492758983012770e-06  2.1318969324203326e-06  2.1571954319469370e-06  2.1075591069591484e-06  1.9534065409719896e-06  1.6405195766132936e-06  1.0624991243040387e-06  0.0000000000000000e+00  -6.6577904961251606e-07  0.0000000000000000e+00  -1.0415029632862088e-06  -1.2571152404346772e-06  -1.3720099995067679e-06  -1.4167819703811267e-06  -1.4090855030523022e-06  -1.3602428277008689e-06  -1.2782360855319945e-06  -1.1691520168366572e-06  -1.0379168093820493e-06  -8.8869083223961826e-07  -7.2510514117040107e-07  -5.5042171507425530e-07  -3.6764664539837695e-07  -1.7961323713339286e-07  1.0955274131710855e-08  2.0138828316268702e-07  3.8901300419619766e-07  5.7109677351874973e-07  7.4478799892815819e-07  9.0704951912304246e-07  1.0545751977530446e-06  1.1836656078408408e-06  1.2900586116562424e-06  1.3686846343586859e-06  1.4132382798192824e-06  1.4154257933868911e-06  1.3635877306862146e-06  1.2399839151188016e-06  1.0152529230006711e-06  6.3649080134930881e-07  0.0000000000000000e+00  0.0000000000000000e+00  0.0000000000000000e+00  0.0000000000000000e+00  0.0000000000000000e+00  0.0000000000000000e+00  0.0000000000000000e+00  0.0000000000000000e+00  0.0000000000000000e+00  0.0000000000000000e+00  0.0000000000000000e+00  0.0000000000000000e+00  0.0000000000000000e+00  0.0000000000000000e+00  0.0000000000000000e+00  0.0000000000000000e+00  0.0000000000000000e+00  0.0000000000000000e+00  0.0000000000000000e+00  0.0000000000000000e+00  0.0000000000000000e+00  0.0000000000000000e+00  0.0000000000000000e+00  0.0000000000000