<?xml version="1.0"?>
<VTKFile type="UnstructuredGrid"  version="0.1"  >
<UnstructuredGrid>
<Piece  NumberOfPoints="759" NumberOfCells="1408">
<Points>
<DataArray  type="Float64"  NumberOfComponents="3"  format="ascii">0 0.46875 0  0.03125 0.46875 0  0.03125 0.515625 0  0 0.515625 0  0.0625 0.46875 0  0.0625 0.515625 0  0.09375 0.46875 0  0.09375 0.515625 0  0.125 0.46875 0  0.125 0.515625 0  0.15625 0.46875 0  0.15625 0.515625 0  0.1875 0.46875 0  0.1875 0.515625 0  0.21875 0.46875 0  0.21875 0.515625 0  0.25 0.46875 0  0.25 0.515625 0  0.28125 0.46875 0  0.28125 0.515625 0  0.3125 0.46875 0  0.3125 0.515625 0  0.34375 0.46875 0  0.34375 0.515625 0  0.375 0.46875 0  0.375 0.515625 0  0.40625 0.46875 0  0.40625 0.515625 0  0.4375 0.46875 0  0.4375 0.515625 0  0.46875 0.46875 0  0.46875 0.515625 0  0.5 0.46875 0  0.5 0.515625 0  0.53125 0.46875 0  0.53125 0.515625 0  0.5625 0.46875 0  0.5625 0.515625 0  0.59375 0.46875 0  0.59375 0.515625 0  0.625 0.46875 0  0.625 0.515625 0  0.65625 0.46875 0  0.65625 0.515625 0  0.6875 0.46875 0  0.6875 0.515625 0  0.71875 0.46875 0  0.71875 0.515625 0  0.75 0.46875 0  0.75 0.515625 0  0.78125 0.46875 0  0.78125 0.515625 0  0.8125 0.46875 0  0.8125 0.515625 0  0.84375 0.46875 0  0.84375 0.515625 0  0.875 0.46875 0  0.875 0.515625 0  0.90625 0.46875 0  0.90625 0.515625 0  0.9375 0.46875 0  0.9375 0.515625 0  0.96875 0.46875 0  0.96875 0.515625 0  1 0.46875 0  1 0.515625 0  0.03125 0.5625 0  0 0.5625 0  0.0625 0.5625 0  0.09375 0.5625 0  0.125 0.5625 0  0.15625 0.5625 0  0.1875 0.5625 0  0.21875 0.5625 0  0.25 0.5625 0  0.28125 0.5625 0  0.3125 0.5625 0  0.34375 0.5625 0  0.375 0.5625 0  0.40625 0.5625 0  0.4375 0.5625 0  0.46875 0.5625 0  0.5 0.5625 0  0.53125 0.5625 0  0.5625 0.5625 0  0.59375 0.5625 0  0.625 0.5625 0  0.65625 0.5625 0  0.6875 0.5625 0  0.71875 0.5625 0  0.75 0.5625 0  0.78125 0.5625 0  0.8125 0.5625 0  0.84375 0.5625 0  0.875 0.5625 0  0.90625 0.5625 0  0.9375 0.5625 0  0.96875 0.5625 0  1 0.5625 0  0.03125 0.609375 0  0 0.609375 0  0.0625 0.609375 0  0.09375 0.609375 0  0.125 0.609375 0  0.15625 0.609375 0  0.1875 0.609375 0  0.21875 0.609375 0  0.25 0.609375 0  0.28125 0.609375 0  0.3125 0.609375 0  0.34375 0.609375 0  0.375 0.609375 0  0.40625 0.609375 0  0.4375 0.609375 0  0.46875 0.609375 0  0.5 0.609375 0  0.53125 0.609375 0  0.5625 0.609375 0  0.59375 0.609375 0  0.625 0.609375 0  0.65625 0.609375 0  0.6875 0.609375 0  0.71875 0.609375 0  0.75 0.609375 0  0.78125 0.609375 0  0.8125 0.609375 0  0.84375 0.609375 0  0.875 0.609375 0  0.90625 0.609375 0  0.9375 0.609375 0  0.96875 0.609375 0  1 0.609375 0  0.03125 0.65625 0  0 0.65625 0  0.0625 0.65625 0  0.09375 0.65625 0  0.125 0.65625 0  0.15625 0.65625 0  0.1875 0.65625 0  0.21875 0.65625 0  0.25 0.65625 0  0.28125 0.65625 0  0.3125 0.65625 0  0.34375 0.65625 0  0.375 0.65625 0  0.40625 0.65625 0  0.4375 0.65625 0  0.46875 0.65625 0  0.5 0.65625 0  0.53125 0.65625 0  0.5625 0.65625 0  0.59375 0.65625 0  0.625 0.65625 0  0.65625 0.65625 0  0.6875 0.65625 0  0.71875 0.65625 0  0.75 0.65625 0  0.78125 0.65625 0  0.8125 0.65625 0  0.84375 0.65625 0  0.875 0.65625 0  0.90625 0.65625 0  0.9375 0.65625 0  0.96875 0.65625 0  1 0.65625 0  0.03125 0.703125 0  0 0.703125 0  0.0625 0.703125 0  0.09375 0.703125 0  0.125 0.703125 0  0.15625 0.703125 0  0.1875 0.703125 0  0.21875 0.703125 0  0.25 0.703125 0  0.28125 0.703125 0  0.3125 0.703125 0  0.34375 0.703125 0  0.375 0.703125 0  0.40625 0.703125 0  0.4375 0.703125 0  0.46875 0.703125 0  0.5 0.703125 0  0.53125 0.703125 0  0.5625 0.703125 0  0.59375 0.703125 0  0.625 0.703125 0  0.65625 0.703125 0  0.6875 0.703125 0  0.71875 0.703125 0  0.75 0.703125 0  0.78125 0.703125 0  0.8125 0.703125 0  0.84375 0.703125 0  0.875 0.703125 0  0.90625 0.703125 0  0.9375 0.703125 0  0.96875 0.703125 0  1 0.703125 0  0.03125 0.75 0  0 0.75 0  0.0625 0.75 0  0.09375 0.75 0  0.125 0.75 0  0.15625 0.75 0  0.1875 0.75 0  0.21875 0.75 0  0.25 0.75 0  0.28125 0.75 0  0.3125 0.75 0  0.34375 0.75 0  0.375 0.75 0  0.40625 0.75 0  0.4375 0.75 0  0.46875 0.75 0  0.5 0.75 0  0.53125 0.75 0  0.5625 0.75 0  0.59375 0.75 0  0.625 0.75 0  0.65625 0.75 0  0.6875 0.75 0  0.71875 0.75 0  0.75 0.75 0  0.78125 0.75 0  0.8125 0.75 0  0.84375 0.75 0  0.875 0.75 0  0.90625 0.75 0  0.9375 0.75 0  0.96875 0.75 0  1 0.75 0  0.03125 0.796875 0  0 0.796875 0  0.0625 0.796875 0  0.09375 0.796875 0  0.125 0.796875 0  0.15625 0.796875 0  0.1875 0.796875 0  0.21875 0.796875 0  0.25 0.796875 0  0.28125 0.796875 0  0.3125 0.796875 0  0.34375 0.796875 0  0.375 0.796875 0  0.40625 0.796875 0  0.4375 0.796875 0  0.46875 0.796875 0  0.5 0.796875 0  0.53125 0.796875 0  0.5625 0.796875 0  0.59375 0.796875 0  0.625 0.796875 0  0.65625 0.796875 0  0.6875 0.796875 0  0.71875 0.796875 0  0.75 0.796875 0  0.78125 0.796875 0  0.8125 0.796875 0  0.84375 0.796875 0  0.875 0.796875 0  0.90625 0.796875 0  0.9375 0.796875 0  0.96875 0.796875 0  1 0.796875 0  0.03125 0.84375 0  0 0.84375 0  0.0625 0.84375 0  0.09375 0.84375 0  0.125 0.84375 0  0.15625 0.84375 0  0.1875 0.84375 0  0.21875 0.84375 0  0.25 0.84375 0  0.28125 0.84375 0  0.3125 0.84375 0  0.34375 0.84375 0  0.375 0.84375 0  0.40625 0.84375 0  0.4375 0.84375 0  0.46875 0.84375 0  0.5 0.84375 0  0.53125 0.84375 0  0.5625 0.84375 0  0.59375 0.84375 0  0.625 0.84375 0  0.65625 0.84375 0  0.6875 0.84375 0  0.71875 0.84375 0  0.75 0.84375 0  0.78125 0.84375 0  0.8125 0.84375 0  0.84375 0.84375 0  0.875 0.84375 0  0.90625 0.84375 0  0.9375 0.84375 0  0.96875 0.84375 0  1 0.84375 0  0.03125 0.890625 0  0 0.890625 0  0.0625 0.890625 0  0.09375 0.890625 0  0.125 0.890625 0  0.15625 0.890625 0  0.1875 0.890625 0  0.21875 0.890625 0  0.25 0.890625 0  0.28125 0.890625 0  0.3125 0.890625 0  0.34375 0.890625 0  0.375 0.890625 0  0.40625 0.890625 0  0.4375 0.890625 0  0.46875 0.890625 0  0.5 0.890625 0  0.53125 0.890625 0  0.5625 0.890625 0  0.59375 0.890625 0  0.625 0.890625 0  0.65625 0.890625 0  0.6875 0.890625 0  0.71875 0.890625 0  0.75 0.890625 0  0.78125 0.890625 0  0.8125 0.890625 0  0.84375 0.890625 0  0.875 0.890625 0  0.90625 0.890625 0  0.9375 0.890625 0  0.96875 0.890625 0  1 0.890625 0  0.03125 0.9375 0  0 0.9375 0  0.0625 0.9375 0  0.09375 0.9375 0  0.125 0.9375 0  0.15625 0.9375 0  0.1875 0.9375 0  0.21875 0.9375 0  0.25 0.9375 0  0.28125 0.9375 0  0.3125 0.9375 0  0.34375 0.9375 0  0.375 0.9375 0  0.40625 0.9375 0  0.4375 0.9375 0  0.46875 0.9375 0  0.5 0.9375 0  0.53125 0.9375 0  0.5625 0.9375 0  0.59375 0.9375 0  0.625 0.9375 0  0.65625 0.9375 0  0.6875 0.9375 0  0.71875 0.9375 0  0.75 0.9375 0  0.78125 0.9375 0  0.8125 0.9375 0  0.84375 0.9375 0  0.875 0.9375 0  0.90625 0.9375 0  0.9375 0.9375 0  0.96875 0.9375 0  1 0.9375 0  0.03125 0.984375 0  0 0.984375 0  0.0625 0.984375 0  0.09375 0.984375 0  0.125 0.984375 0  0.15625 0.984375 0  0.1875 0.984375 0  0.21875 0.984375 0  0.25 0.984375 0  0.28125 0.984375 0  0.3125 0.984375 0  0.34375 0.984375 0  0.375 0.984375 0  0.40625 0.984375 0  0.4375 0.984375 0  0.46875 0.984375 0  0.5 0.984375 0  0.53125 0.984375 0  0.5625 0.984375 0  0.59375 0.984375 0  0.625 0.984375 0  0.65625 0.984375 0  0.6875 0.984375 0  0.71875 0.984375 0  0.75 0.984375 0  0.78125 0.984375 0  0.8125 0.984375 0  0.84375 0.984375 0  0.875 0.984375 0  0.90625 0.984375 0  0.9375 0.984375 0  0.96875 0.984375 0  1 0.984375 0  0.03125 1.03125 0  0 1.03125 0  0.0625 1.03125 0  0.09375 1.03125 0  0.125 1.03125 0  0.15625 1.03125 0  0.1875 1.03125 0  0.21875 1.03125 0  0.25 1.03125 0  0.28125 1.03125 0  0.3125 1.03125 0  0.34375 1.03125 0  0.375 1.03125 0  0.40625 1.03125 0  0.4375 1.03125 0  0.46875 1.03125 0  0.5 1.03125 0  0.53125 1.03125 0  0.5625 1.03125 0  0.59375 1.03125 0  0.625 1.03125 0  0.65625 1.03125 0  0.6875 1.03125 0  0.71875 1.03125 0  0.75 1.03125 0  0.78125 1.03125 0  0.8125 1.03125 0  0.84375 1.03125 0  0.875 1.03125 0  0.90625 1.03125 0  0.9375 1.03125 0  0.96875 1.03125 0  1 1.03125 0  0.03125 1.078125 0  0 1.078125 0  0.0625 1.078125 0  0.09375 1.078125 0  0.125 1.078125 0  0.15625 1.078125 0  0.1875 1.078125 0  0.21875 1.078125 0  0.25 1.078125 0  0.28125 1.078125 0  0.3125 1.078125 0  0.34375 1.078125 0  0.375 1.078125 0  0.40625 1.078125 0  0.4375 1.078125 0  0.46875 1.078125 0  0.5 1.078125 0  0.53125 1.078125 0  0.5625 1.078125 0  0.59375 1.078125 0  0.625 1.078125 0  0.65625 1.078125 0  0.6875 1.078125 0  0.71875 1.078125 0  0.75 1.078125 0  0.78125 1.078125 0  0.8125 1.078125 0  0.84375 1.078125 0  0.875 1.078125 0  0.90625 1.078125 0  0.9375 1.078125 0  0.96875 1.078125 0  1 1.078125 0  0.03125 1.125 0  0 1.125 0  0.0625 1.125 0  0.09375 1.125 0  0.125 1.125 0  0.15625 1.125 0  0.1875 1.125 0  0.21875 1.125 0  0.25 1.125 0  0.28125 1.125 0  0.3125 1.125 0  0.34375 1.125 0  0.375 1.125 0  0.40625 1.125 0  0.4375 1.125 0  0.46875 1.125 0  0.5 1.125 0  0.53125 1.125 0  0.5625 1.125 0  0.59375 1.125 0  0.625 1.125 0  0.65625 1.125 0  0.6875 1.125 0  0.71875 1.125 0  0.75 1.125 0  0.78125 1.125 0  0.8125 1.125 0  0.84375 1.125 0  0.875 1.125 0  0.90625 1.125 0  0.9375 1.125 0  0.96875 1.125 0  1 1.125 0  0.03125 1.171875 0  0 1.171875 0  0.0625 1.171875 0  0.09375 1.171875 0  0.125 1.171875 0  0.15625 1.171875 0  0.1875 1.171875 0  0.21875 1.171875 0  0.25 1.171875 0  0.28125 1.171875 0  0.3125 1.171875 0  0.34375 1.171875 0  0.375 1.171875 0  0.40625 1.171875 0  0.4375 1.171875 0  0.46875 1.171875 0  0.5 1.171875 0  0.53125 1.171875 0  0.5625 1.171875 0  0.59375 1.171875 0  0.625 1.171875 0  0.65625 1.171875 0  0.6875 1.171875 0  0.71875 1.171875 0  0.75 1.171875 0  0.78125 1.171875 0  0.8125 1.171875 0  0.84375 1.171875 0  0.875 1.171875 0  0.90625 1.171875 0  0.9375 1.171875 0  0.96875 1.171875 0  1 1.171875 0  0.03125 1.21875 0  0 1.21875 0  0.0625 1.21875 0  0.09375 1.21875 0  0.125 1.21875 0  0.15625 1.21875 0  0.1875 1.21875 0  0.21875 1.21875 0  0.25 1.21875 0  0.28125 1.21875 0  0.3125 1.21875 0  0.34375 1.21875 0  0.375 1.21875 0  0.40625 1.21875 0  0.4375 1.21875 0  0.46875 1.21875 0  0.5 1.21875 0  0.53125 1.21875 0  0.5
[...]
<PointData  Scalars="p"> 
<DataArray  type="Float64"  Name="p"  format="ascii">0.0000000000000000e+00  -9.4262870427506643e-03  -9.8745160007723109e-03  0.0000000000000000e+00  -1.6254176599272828e-02  -1.7002868071856567e-02  -2.0956046694517477e-02  -2.1912266508320271e-02  -2.3932055425073449e-02  -2.5027108845481445e-02  -2.5512388773914336e-02  -2.6690485529219474e-02  -2.5966293666763639e-02  -2.7180020680943540e-02  -2.5512210334691327e-02  -2.6720407746514869e-02  -2.4327060262549119e-02  -2.5493832880302877e-02  -2.2554374402145329e-02  -2.3648426951602981e-02  -2.0311055600236397e-02  -2.1305383375910480e-02  -1.7693098722932857e-02  -1.8564666291327869e-02  -1.4780292086968414e-02  -1.5509914073397770e-02  -1.1640179400269242e-02  -1.2212336926833716e-02  -8.3313330378623710e-03  -8.7341414177598969e-03  -4.9062060545623336e-03  -5.1313369816473730e-03  -1.4135668160177074e-03  -1.4562949949612919e-03  2.0992754595255646e-03  2.2400439369149846e-03  5.5843927239405408e-03  5.9059870276821557e-03  8.9911538676771194e-03  9.4870078597485748e-03  1.2264101339340392e-02  1.2923535417987233e-02  1.5340625437768896e-02  1.6148635978416641e-02  1.8148351164731139e-02  1.9085328107875207e-02  2.0602091813389765e-02  2.1643553535389257e-02  2.2600263603667722e-02  2.3716529342479808e-02  2.4020508653696385e-02  2.5176406092879935e-02  2.4714410072842127e-02  2.5868917561513209e-02  2.4500952675936067e-02  2.5606928383116664e-02  2.3158530157468254e-02  2.4162474978470742e-02  2.0415036455356739e-02  2.1257315420488799e-02  1.5935302445723769e-02  1.6551703584678983e-02  9.3041055273189004e-03  9.6320764896073250e-03  0.0000000000000000e+00  0.0000000000000000e+00  -1.0919531156465170e-02  0.0000000000000000e+00  -1.8823189069608809e-02  -2.4290575882774022e-02  -2.7785251522247961e-02  -2.9679461947679509e-02  -3.0273049234747839e-02  -2.9808592157650683e-02  -2.8483055199764077e-02  -2.6457528524491417e-02  -2.3864624186860296e-02  -2.0814925235224466e-02  -1.7401834785767220e-02  -1.3705986883413443e-02  -9.7985464512664582e-03  -5.7444258546324265e-03  -1.6047445132250269e-03  2.5606303549906024e-03  6.6909409097258392e-03  1.0722181225892849e-02  1.4584902521416757e-02  1.8201649613830344e-02  2.1484293783645563e-02  2.4330759812780812e-02  2.6621398206615861e-02  2.8214352540836846e-02  2.8940132353807723e-02  2.8594694962914422e-02  2.6931095335632191e-02  2.3649021434576666e-02  1.8382100469243944e-02  1.0682173424835482e-02  0.0000000000000000e+00  -1.2507079196017189e-02  0.0000000000000000e+00  -2.1572520949736801e-02  -2.7862752595790546e-02  -3.1905713005573724e-02  -3.4121918598998512e-02  -3.4848571493636293e-02  -3.4357582201370487e-02  -3.2870130035525358e-02  -3.0567366164518821e-02  -2.7599596539967207e-02  -2.4092763648144409e-02  -2.0154575238672746e-02  -1.5878589620137218e-02  -1.1348539030464273e-02  -6.6411665552701254e-03  -1.8295371557963535e-03  3.0147269959530771e-03  7.8185892584034487e-03  1.2505442702601819e-02  1.6992311382327020e-02  2.1187409075427450e-02  2.4986906687115205e-02  2.8271722662342742e-02  3.0903254547791675e-02  3.2718645450023974e-02  3.3524430104995936e-02  3.3089017731691740e-02  3.1132629694359096e-02  2.7314911108635442e-02  2.1218465345174336e-02  1.2327637169926669e-02  0.0000000000000000e+00  -1.4624855263621717e-02  0.0000000000000000e+00  -2.5215670928940798e-02  -3.2565296154203116e-02  -3.7295623408282505e-02  -3.9898261683272984e-02  -4.0764657661261944e-02  -4.0209545372198861e-02  -3.8487961908039964e-02  -3.5809307005277687e-02  -3.2347057114041025e-02  -2.8247646411493112e-02  -2.3636176752667777e-02  -1.8622491002611558e-02  -1.3304677737949402e-02  -7.7736971575163892e-03  -2.1158110079760690e-03  3.5835817652926662e-03  9.2378452530840569e-03  1.4755550158396519e-02  2.0038243323996414e-02  2.4976783143458029e-02  2.9448452461263045e-02  3.3312564230693266e-02  3.6406264078682485e-02  3.8538389888938693e-02  3.9482611109345297e-02  3.8967834353828085e-02  3.6666363961922570e-02  3.2177783560224500e-02  2.5008035847976763e-02  1.4540920682013769e-02  0.0000000000000000e+00  -1.7295243399253552e-02  0.0000000000000000e+00  -2.9784545990325720e-02  -3.8429509580199500e-02  -4.3979070849322781e-02  -4.7021023744359840e-02  -4.8020948849613679e-02  -4.7350965065745869e-02  -4.5311966827202323e-02  -4.2149740980176341e-02  -3.8068186685903296e-02  -3.3238384219645922e-02  -2.7807195461550159e-02  -2.1902445313399837e-02  -1.5639219027046323e-02  -9.1230244440883672e-03  -2.4550545790971564e-03  4.2656380923107619e-03  1.0937276504832609e-02  1.7453323205173364e-02  2.3697740415497586e-02  2.9542469539198091e-02  3.4842345266581816e-02  3.9431274779428330e-02  4.3115956806950607e-02  4.5669545905951001e-02  4.6822335248522279e-02  4.6250693582186482e-02  4.3561558740432840e-02  3.8272530803675056e-02  2.9784552638382499e-02  1.7345390591053379e-02  0.0000000000000000e+00  -2.0566371049406763e-02  0.0000000000000000e+00  -3.5355781259625588e-02  -4.5545854641197515e-02  -5.2049152018555832e-02  -5.5578405722094819e-02  -5.6695325984532134e-02  -5.5846981793512926e-02  -5.3393023098810090e-02  -4.9626246296485106e-02  -4.4787931074098640e-02  -3.9080044970326105e-02  -3.2674170311539713e-02  -2.5719651256597014e-02  -1.8348908918002609e-02  -1.0684018975283578e-02  -2.8399977028105814e-03  5.0690508952175514e-03  1.2927576252561447e-02  2.0612328957699617e-02  2.7990021387679288e-02  3.4910904587794750e-02  4.1205316996443295e-02  4.6676579487143238e-02  5.1095124883813139e-02  5.4189178126079741e-02  5.5634287902871865e-02  5.5038699113757882e-02  5.1924467338426282e-02  4.5701925911194131e-02  3.5635306289292547e-02  2.0796104223313908e-02  0.0000000000000000e+00  -2.4505626922001544e-02  0.0000000000000000e+00  -4.2037580810747051e-02  -5.4043381570453651e-02  -6.1641068811632907e-02  -6.5701079552839076e-02  -6.6906955975464671e-02  -6.5800801903866474e-02  -6.2816692026962273e-02  -5.8306192068442612e-02  -5.2557040547121729e-02  -4.5808013735662255e-02  -3.8260190961098096e-02  -3.0086192202918745e-02  -2.1438023834006534e-02  -1.2453288467916714e-02  -3.2619715955906521e-03  6.0092279085520763e-03  1.5229874138305920e-02  2.4262294601895620e-02  3.2953935435565011e-02  4.1133600207956630e-02  4.8603028275976783e-02  5.5131194074223296e-02  6.0444396763058530e-02  6.4216335799094082e-02  6.6053904961468166e-02  6.5479573576192371e-02  6.1907496458585100e-02  5.4611664863888146e-02  4.2682811425585873e-02  2.4969735645121633e-02  0.0000000000000000e+00  -2.9196033963302885e-02  0.0000000000000000e+00  -4.9962063913837722e-02  -6.4077834202858633e-02  -7.2915503051446368e-02  -7.7541508831651743e-02  -7.8791563773287207e-02  -7.7326655941222636e-02  -7.3673939836744778e-02  -6.8257864179562186e-02  -6.1423066022508403e-02  -5.3452385257886627e-02  -4.4580876299947517e-02  -3.5007135433845524e-02  -2.4903033825711046e-02  -1.4421931853426696e-02  -3.7064388994209265e-03  7.1045285931328863e-03  1.7868962892909738e-02  2.8434286135618717e-02  3.8631061837217366e-02  4.8264096709282459e-02  5.7105557770492706e-02  6.4883912110063932e-02  7.1274328774589751e-02  7.5883888871051991e-02  7.8235336566661748e-02  7.7744222039648134e-02  7.3689816291712076e-02  6.5175368604524220e-02  5.1074777983275650e-02  2.9959549710987125e-02  0.0000000000000000e+00  -3.4734899342603258e-02  0.0000000000000000e+00  -5.9281379280294581e-02  -7.5824141388383615e-02  -8.6047133400552894e-02  -9.1258207924936552e-02  -9.2482164178990578e-02  -9.0527408441278157e-02  -8.6037207294530613e-02  -7.9525460753525859e-02  -7.1406448874920106e-02  -6.2014883075506157e-02  -5.1624969552790959e-02  -4.0463105869752811e-02  -2.8721138431334604e-02  -1.6566462868762087e-02  -4.1517398572542726e-03  8.3752515180999347e-03  2.0863745395986785e-02  3.3149559263338783e-02  4.5047061556973390e-02  5.6338556685767351e-02  6.6763200989631663e-02  7.6005683417041517e-02  8.3680238141986746e-02  8.9315369686103652e-02  9.2330344193484015e-02  9.2009410980677359e-02  8.7464030203045204e-02  7.7585638556341471e-02  6.0979085396746367e-02  3.5873561819585606e-02  0.0000000000000000e+00  -4.1233400125207480e-02  0.0000000000000000e+00  -7.0164456847745693e-02  -8.9469272752185414e-02  -1.0121208954084381e-01  -1.0699861494732789e-01  -1.0808693347452961e-01  -1.0546978745432156e-01  -9.9933094875128206e-02  -9.2102266635954139e-02  -8.2474056788497285e-02  -7.1445696586008522e-02  -5.9333709710187532e-02  -4.6394763796001638e-02  -3.2838368281049135e-02  -1.8843023659658602e-02  -4.5671625649434050e-03  9.8384267248648963e-03  2.4218505189731628e-02  3.8403017716012511e-02  5.2193187879394275e-02  6.5350497809003233e-02  7.7581385638540959e-02  8.8520896735395635e-02  9.7715549794307188e-02  1.0459860357406048e-01  1.0846582548620465e-01  1.0843864912425696e-01  1.0342210847751554e-01  9.2044438715789850e-02  7.2578633613549937e-02  4.2832546799994896e-02  0.0000000000000000e+00  -4.8815875487635829e-02  0.0000000000000000e+00  -8.2792848716336964e-02  -1.0520128678266835e-01  -1.1857056797447836e-01  -1.2487354544647356e-01  -1.2565920929243196e-01  -1.2214896808854343e-01  -1.1530720992378692e-01  -1.0589412590318370e-01  -9.4507327232107682e-02  -8.1613713786543515e-02  -6.7578170149645914e-02  -5.2684768902632233e-02  -3.7158936961341850e-02  -2.1183041393919213e-02  -4.9149114398795955e-03  1.1499292077492024e-02  2.7908506605789900e-02  4.4143265382650537e-02  5.9999426515911738e-02  7.5221427458972173e-02  8.9484270780436970e-02  1.0237185089162606e-01  1.1335220062830781e-01  1.2174976464468770e-01  1.2670896348700864e-01  1.2715400314276490e-01  1.2173297563149355e-01  1.0874893524534855e-01  8.6063772969804095e-02  5.0967978943071160e-02  0.0000000000000000e+00  -5.7618725167556270e-02  0.0000000000000000e+00  -9.7352513452589412e-02  -1.2319139301122296e-01  -1.3823647679240955e-01  -1.4491769487451217e-01  -1.4514879982588641e-01  -1.4043819601147092e-01  -1.3197123492497501e-01  -1.2067280627481798e-01  -1.0725793319622601e-01  -9.2272733521574848e-02  -7.6130174231746103e-02  -5.9139652689122725e-02  -4.1533587476521520e-02  -2.3490731044478883e-02  -5.1559876307646843e-03  1.3338620441762606e-02  3.1858721883834422e-02  5.0245464385598924e-02  6.8299800395029017e-02  8.5757831703300091e-02  1.0226774040008639e-01  1.1736239087174385e-01  1.3042539447995921e-01  1.4065434500578977e-01  1.4701550046428327e-01  1.4818998392257107e-01  1.4250898563058537e-01  1.2786906220887795e-01  1.0162163829200380e-01  6.0418851763330575e-02  0.0000000000000000e+00  -6.7786871055248901e-02  0.0000000000000000e+00  -1.1401767137067387e-01  -1.4355936439046657e-01  -1.6022434058775900e-01  -1.6702031241465298e-01  -1.6632431046152021e-01  -1.6000699425554882e-01  -1.4952691483284938e-01  -1.3600602390514824e-01  -1.2029246991770348e-01  -1.0301576018539517e-01  -8.4632580812372904e-02  -6.5468607880851265e-02  -4.5751631525624233e-02  -2.5642260662757054e-02  -5.2598811750685119e-03  1.5295033122704985e-02  3.5916516144869882e-02  5.6474169267247180e-02  7.6785718723246993e-02  9.6593252502980037e-02  1.1552946064361480e-01  1.3308090527556726e-01  1.4854605521949829e-01  1.6098152698611504e-01  1.6914401686694758e-01  1.7142045394213182e-01  1.6574630239267574e-01  1.4950809427627651e-01  1.1941485462817925e-01  7.1325126027967770e-02  0.0000000000000000e+00  -7.9466639022002100e-02  0.0000000000000000e+00  -1.3291971862043842e-01  -1.6631001481831739e-01  -1.8435472339160630e-01  -1.9080865032617267e-01  -1.8864657923240058e-01  -1.8019778056416894e-01  -1.6725383766718943e-01  -1.5116369970297236e-01  -1.3291765925678350e-01  -1.1322162122826433e-01  -9.2563237315827968e-02  -7.1265413132651056e-02  -4.9533593817989600e-02  -2.7492394230919866e-02  -5.2166845077902119e-03  1.7239741045578249e-02  3.9819886435860909e-02  6.2436504613347897e-02  8.4945780581127728e-02  1.0711312915893877e-01  1.2857509984888663e-01  1.4878936887426428e-01  1.6697565361235067e-01  1.8204570055368369e-01  1.9251888653318780e-01  1.9642955559729675e-01  1.9122196949314804e-01  1.7363182667824542e-01  1.3954667663580048e-01  8.3818914746859610e-02  0.0000000000000000e+00  -9.2788623491350017e-02  0.0000000000000000e+00  -1.5408144856026768e-01  -1.9120783592176027e-01  -2.1007933071461274e-01  -2.1544564695113633e-01  -2.1106435896840786e-01  -1.9983959790842765e-01  -1.8395419281837083e-01  -1.6499890256469316e-01  -1.4409430254558500e-01  -1.2199888909495059e-01  -9.9200831403408601e-02  -7.5992800919805217e-02  -5.2530787014187334e-02  -2.8881446365379770e-02  -5.0572536943720020e-03  1.8953636446845182e-02  4.3159226431937571e-02  6.7536315301520808e-02  9.1999922809596721e-02  1.1636672234797597e-01  1.4030538134245144e-01  1.6327543158710678e-01  1.8444672362356149e-01  2.0259997820235898e-01  2.1600824439792191e-01  2.2229973827803179e-01  2.1831146443783578e-01  1.9994094282675226e-01  1.6199327778793438e-01  9.8006581006273311e-02  0.0000000000000000e+00  -1.0782374279353329e-01  0.0000000000000000e+00  -1.7727058373942656e-01  -2.1752032334773008e-01  -2.3614846137829704e-01  -2.3927599927913917e-01  -2.3168600650237006e-01  -2.1697588748246988e-01  -1.9774719205794578e-01  -1.7580560027332440e-01  -1.5235075017644889e-01  -1.2813767243225224e-01  -1.0360558556078658e-01  -7.8977015684532470e-02  -5.4328841802936054e-02  -2.9646710165622991e-02  -4.8645235084012030e-03  2.0107706781601471e-02  4.5356318365959498e-02  7.0938173785392786e-02  9.6849873092126074e-02  1.2298800298717495e-01  1.4909521747756196e-01  1.7468306785220050e-01  1.9893021768484115e-01  2.2054325689557441e-01  2.3758076482216417e-01  2.4724431553595627e-01  2.4564984726746100e-01  2.2761025839717688e-01  1.8645946343359737e-01  1.1392681290396754e-01  0.0000000000000000e+00  -1.2447322192064900e-01  0.0000000000000000e+00  -2.0166631909260355e-01  -2.4348405546950100e-01  -2.5998698946093524e-01  -2.5922809714577943e-01  -2.4728652591069541e-01  -2.2850565712781146e-01  -2.0583597779413110e-01  -1.8118503758945281e-01  -1.5571618309082547e-01  -1.3008650249731354e-01  -1.0461790295936109e-01  -7.9416416428675224e-02  -5.4454253433017512e-02  -2.9622689306109378e-02  -4.7697265377927116e-03  2.0273835794669320e-02  4.5675441129118470e-02  7.1577576208928462e-02  9.8072399543985986e-02  1.2516439488834599e-01  1.5271459926195896e-01  1.8035886061578874e-01  2.0738103957074294e-01  2.3253267255130575e-01  2.5378189825513098e-01  2.6798396438633337e-01  2.7049095274469309e-01  2.5475800372111940e-01  2.1206149256050999e-01  1.3145908700267994e-01  0.0000000000000000e+00  -1.4216747893018558e-01  0.0000000000000000e+00  -2.2504870070675065e-01  -2.6516574690524480e-01  -2.7654010629946146e-01  -2.6987358430805963e-01  -2.5266137204089417e-01  -2.2980571694303134e-01  -2.0432898238450944e-01  -1.7798773141922986e-01  -1.5172412771264374e-01  -1.2597529606817223e-01  -1.0087685690559312e-01  -7.6387400811275707e-02  -5.2364527594674873e-02  -2.8611522255955920e-02  -4.9049757424020320e-03  1.8988894351774088e-02  4.3301064742446084e-02  6.8247872919596914e-02  9.4012151147833262e-02  1.2071598311469671e-01  1.4837492352122825e-01  1.7681815780417739e-01  2.0556003110523557e-01  2.3359223155113909e-01  2.5905867778486497e-01  2.7876832259202117e-01  2.8752135271567847e-01  2.7730075272889998e-01  2.3655626711197536e-01  1.5007601355651573e-01  0.0000000000000000e+00  -1.5892920425812893e-01  0.0000000000000000e+00  -2.4171356965052379e-01  -2.7407193263464025e-01  -2.7634115445378044e-01  -2.6222305309642563e-01  -2.4005849204191274e-01  -2.1457611501881438e-01  -1.8828967599127322e-01  -1.6243128456455699e-01  -1.3751807216358358e-01  -1.1367779619169253e-01  -9.0834482693665147e-02  -6.8809835405257827e-02  -4.7376256783429091e-02  -2.6284597231421760e-02  -5.2780571834049588e-03  1.5901409272326656e-02  3.7510990761996182e-02  5.9802441740277393e-02  8.3016089884375990e-02  1.0736690463055790e-01  1.3301590546521400e-01  1.6001523988316405e-01  1.8820627209668608e-01  2.1703434510434949e-01  2.4521117417811469e-01  2.7012295132985065e-01  2.8682765628235590e-01  2.8648406093428869e-01  2.5431047770191778e-01  1.6809030377818066e-01  0.0000000000000000e+00  -1.6791851456661300e-01  0.0000000000000000e+00  -2.3696407732291563e-01  -2.5271127585828529e-01  -2.4322048451052503e-01  -2.2313127956725878e-01  -1.9946896385749482e-01  -1.7540386135128694e-01  -1.5224728624883554e-01  -1.3043631900553768e-01  -1.1000702881355552e-01  -9.0817889063722526e-02  -7.2655478313531002e-02  -5.5283115129884222e-02  -3.8461305094936990e-02  -2.1955010170475436e-02  -5.5348642135564265e-03  1.1025252153660079e-02  2.7950925685735744e-02  4.5470551278025136e-02  6.3816738748818852e-02  8.3225410313503889e-02  1.0392741578428986e-01  1.2612721839086546e-01  1.4995667665869999e-01  1.7537141003628112e-01  2.0193246492166084e-01  2.2834206663519557e-01  2.5143816501018040e-01  2.6404165164063270e-01  2.5058129768852755e-01  1.7977378546034525e-01  0.0000000000000000e+00  -1.4306362106970491e-01  0.0000000000000000e+00  -1.7503343694112275e-01  -1.7054135745696472e-01  -1.5539701356313740e-01  -1.3803600547927530e-01  -1.2113467951036531e-01  -1.0544733829977604e-01  -9.1076738255681064e-02  -7.7908492354330991e-02  -6.5764098682937144e-02  -5.4454783444234461e-02  -4.3800400910358882e-02  -3.3634376787977309e-02  -2.3802760574092398e-02  -1.4161646745036881e-02  -4.5737855843808939e-03  5.0948708907504366e-03  1.4978895385831515e-02  2.5216648563164228e-02  3.5954081666102443e-02  4.7347633305911400e-02  5.9566394513677665e-02  7.2792830987755019e-02  8.7218551195806557e-02  1.0302808725473082e-01  1.2035445428357383e-01  1.3915779049955901e-01  1.5887310336458280e-01  1.7732170413977408e-01  1.8699798712566398e-01  1.6120687788125662e-01  0.0000000000000000e+00  0.0000000000000000e+00  0.0000000000000000e+00  0.0000000000000000e+00  0.0000000000000000e+00  0.0000000000000000e+00  0.0000000000000000e+00  0.0000000000000000e+00  0.0000000000000000e+00  0.0000000000000000e+00  0.0000000000000000e+00  0.0000000000000000e+00  0.0000000000000000e+00  0.0000000000000000e+00  0.0000000000000000e+00  0.0000000000000000e+00  0.0000000000000000e+00  0.0000000000000000e+00  0.0000000000000000e+00  0.0000000000000000e+00  0.0000000000000000e+00  0.0000000000000000e+00  0.0000000000000000e+00  0.0000000000000000e+00  0.0000000000000000e+00  0.0000000000000000e+00  0.0000000000000000e+00  0.0000000000000000e+00  0.0000000000000000e+00  0.0000000000000000e+00  0.0000000000000000e+00  0.0000000000000000e+00  0.0000000000000000e+00  0.0000000000000000e+00  </DataArray> 
</PointData> 
</Piece>
</UnstructuredGrid>
</VTKFile>