<?xml version="1.0"?>
<VTKFile type="UnstructuredGrid"  version="0.1"  >
<UnstructuredGrid>
<Piece  NumberOfPoints="759" NumberOfCells="1408">
<Points>
<DataArray  type="Float64"  NumberOfComponents="3"  format="ascii">0 0.46875 0  0.03125 0.46875 0  0.03125 0.515625 0  0 0.515625 0  0.0625 0.46875 0  0.0625 0.515625 0  0.09375 0.46875 0  0.09375 0.515625 0  0.125 0.46875 0  0.125 0.515625 0  0.15625 0.46875 0  0.15625 0.515625 0  0.1875 0.46875 0  0.1875 0.515625 0  0.21875 0.46875 0  0.21875 0.515625 0  0.25 0.46875 0  0.25 0.515625 0  0.28125 0.46875 0  0.28125 0.515625 0  0.3125 0.46875 0  0.3125 0.515625 0  0.34375 0.46875 0  0.34375 0.515625 0  0.375 0.46875 0  0.375 0.515625 0  0.40625 0.46875 0  0.40625 0.515625 0  0.4375 0.46875 0  0.4375 0.515625 0  0.46875 0.46875 0  0.46875 0.515625 0  0.5 0.46875 0  0.5 0.515625 0  0.53125 0.46875 0  0.53125 0.515625 0  0.5625 0.46875 0  0.5625 0.515625 0  0.59375 0.46875 0  0.59375 0.515625 0  0.625 0.46875 0  0.625 0.515625 0  0.65625 0.46875 0  0.65625 0.515625 0  0.6875 0.46875 0  0.6875 0.515625 0  0.71875 0.46875 0  0.71875 0.515625 0  0.75 0.46875 0  0.75 0.515625 0  0.78125 0.46875 0  0.78125 0.515625 0  0.8125 0.46875 0  0.8125 0.515625 0  0.84375 0.46875 0  0.84375 0.515625 0  0.875 0.46875 0  0.875 0.515625 0  0.90625 0.46875 0  0.90625 0.515625 0  0.9375 0.46875 0  0.9375 0.515625 0  0.96875 0.46875 0  0.96875 0.515625 0  1 0.46875 0  1 0.515625 0  0.03125 0.5625 0  0 0.5625 0  0.0625 0.5625 0  0.09375 0.5625 0  0.125 0.5625 0  0.15625 0.5625 0  0.1875 0.5625 0  0.21875 0.5625 0  0.25 0.5625 0  0.28125 0.5625 0  0.3125 0.5625 0  0.34375 0.5625 0  0.375 0.5625 0  0.40625 0.5625 0  0.4375 0.5625 0  0.46875 0.5625 0  0.5 0.5625 0  0.53125 0.5625 0  0.5625 0.5625 0  0.59375 0.5625 0  0.625 0.5625 0  0.65625 0.5625 0  0.6875 0.5625 0  0.71875 0.5625 0  0.75 0.5625 0  0.78125 0.5625 0  0.8125 0.5625 0  0.84375 0.5625 0  0.875 0.5625 0  0.90625 0.5625 0  0.9375 0.5625 0  0.96875 0.5625 0  1 0.5625 0  0.03125 0.609375 0  0 0.609375 0  0.0625 0.609375 0  0.09375 0.609375 0  0.125 0.609375 0  0.15625 0.609375 0  0.1875 0.609375 0  0.21875 0.609375 0  0.25 0.609375 0  0.28125 0.609375 0  0.3125 0.609375 0  0.34375 0.609375 0  0.375 0.609375 0  0.40625 0.609375 0  0.4375 0.609375 0  0.46875 0.609375 0  0.5 0.609375 0  0.53125 0.609375 0  0.5625 0.609375 0  0.59375 0.609375 0  0.625 0.609375 0  0.65625 0.609375 0  0.6875 0.609375 0  0.71875 0.609375 0  0.75 0.609375 0  0.78125 0.609375 0  0.8125 0.609375 0  0.84375 0.609375 0  0.875 0.609375 0  0.90625 0.609375 0  0.9375 0.609375 0  0.96875 0.609375 0  1 0.609375 0  0.03125 0.65625 0  0 0.65625 0  0.0625 0.65625 0  0.09375 0.65625 0  0.125 0.65625 0  0.15625 0.65625 0  0.1875 0.65625 0  0.21875 0.65625 0  0.25 0.65625 0  0.28125 0.65625 0  0.3125 0.65625 0  0.34375 0.65625 0  0.375 0.65625 0  0.40625 0.65625 0  0.4375 0.65625 0  0.46875 0.65625 0  0.5 0.65625 0  0.53125 0.65625 0  0.5625 0.65625 0  0.59375 0.65625 0  0.625 0.65625 0  0.65625 0.65625 0  0.6875 0.65625 0  0.71875 0.65625 0  0.75 0.65625 0  0.78125 0.65625 0  0.8125 0.65625 0  0.84375 0.65625 0  0.875 0.65625 0  0.90625 0.65625 0  0.9375 0.65625 0  0.96875 0.65625 0  1 0.65625 0  0.03125 0.703125 0  0 0.703125 0  0.0625 0.703125 0  0.09375 0.703125 0  0.125 0.703125 0  0.15625 0.703125 0  0.1875 0.703125 0  0.21875 0.703125 0  0.25 0.703125 0  0.28125 0.703125 0  0.3125 0.703125 0  0.34375 0.703125 0  0.375 0.703125 0  0.40625 0.703125 0  0.4375 0.703125 0  0.46875 0.703125 0  0.5 0.703125 0  0.53125 0.703125 0  0.5625 0.703125 0  0.59375 0.703125 0  0.625 0.703125 0  0.65625 0.703125 0  0.6875 0.703125 0  0.71875 0.703125 0  0.75 0.703125 0  0.78125 0.703125 0  0.8125 0.703125 0  0.84375 0.703125 0  0.875 0.703125 0  0.90625 0.703125 0  0.9375 0.703125 0  0.96875 0.703125 0  1 0.703125 0  0.03125 0.75 0  0 0.75 0  0.0625 0.75 0  0.09375 0.75 0  0.125 0.75 0  0.15625 0.75 0  0.1875 0.75 0  0.21875 0.75 0  0.25 0.75 0  0.28125 0.75 0  0.3125 0.75 0  0.34375 0.75 0  0.375 0.75 0  0.40625 0.75 0  0.4375 0.75 0  0.46875 0.75 0  0.5 0.75 0  0.53125 0.75 0  0.5625 0.75 0  0.59375 0.75 0  0.625 0.75 0  0.65625 0.75 0  0.6875 0.75 0  0.71875 0.75 0  0.75 0.75 0  0.78125 0.75 0  0.8125 0.75 0  0.84375 0.75 0  0.875 0.75 0  0.90625 0.75 0  0.9375 0.75 0  0.96875 0.75 0  1 0.75 0  0.03125 0.796875 0  0 0.796875 0  0.0625 0.796875 0  0.09375 0.796875 0  0.125 0.796875 0  0.15625 0.796875 0  0.1875 0.796875 0  0.21875 0.796875 0  0.25 0.796875 0  0.28125 0.796875 0  0.3125 0.796875 0  0.34375 0.796875 0  0.375 0.796875 0  0.40625 0.796875 0  0.4375 0.796875 0  0.46875 0.796875 0  0.5 0.796875 0  0.53125 0.796875 0  0.5625 0.796875 0  0.59375 0.796875 0  0.625 0.796875 0  0.65625 0.796875 0  0.6875 0.796875 0  0.71875 0.796875 0  0.75 0.796875 0  0.78125 0.796875 0  0.8125 0.796875 0  0.84375 0.796875 0  0.875 0.796875 0  0.90625 0.796875 0  0.9375 0.796875 0  0.96875 0.796875 0  1 0.796875 0  0.03125 0.84375 0  0 0.84375 0  0.0625 0.84375 0  0.09375 0.84375 0  0.125 0.84375 0  0.15625 0.84375 0  0.1875 0.84375 0  0.21875 0.84375 0  0.25 0.84375 0  0.28125 0.84375 0  0.3125 0.84375 0  0.34375 0.84375 0  0.375 0.84375 0  0.40625 0.84375 0  0.4375 0.84375 0  0.46875 0.84375 0  0.5 0.84375 0  0.53125 0.84375 0  0.5625 0.84375 0  0.59375 0.84375 0  0.625 0.84375 0  0.65625 0.84375 0  0.6875 0.84375 0  0.71875 0.84375 0  0.75 0.84375 0  0.78125 0.84375 0  0.8125 0.84375 0  0.84375 0.84375 0  0.875 0.84375 0  0.90625 0.84375 0  0.9375 0.84375 0  0.96875 0.84375 0  1 0.84375 0  0.03125 0.890625 0  0 0.890625 0  0.0625 0.890625 0  0.09375 0.890625 0  0.125 0.890625 0  0.15625 0.890625 0  0.1875 0.890625 0  0.21875 0.890625 0  0.25 0.890625 0  0.28125 0.890625 0  0.3125 0.890625 0  0.34375 0.890625 0  0.375 0.890625 0  0.40625 0.890625 0  0.4375 0.890625 0  0.46875 0.890625 0  0.5 0.890625 0  0.53125 0.890625 0  0.5625 0.890625 0  0.59375 0.890625 0  0.625 0.890625 0  0.65625 0.890625 0  0.6875 0.890625 0  0.71875 0.890625 0  0.75 0.890625 0  0.78125 0.890625 0  0.8125 0.890625 0  0.84375 0.890625 0  0.875 0.890625 0  0.90625 0.890625 0  0.9375 0.890625 0  0.96875 0.890625 0  1 0.890625 0  0.03125 0.9375 0  0 0.9375 0  0.0625 0.9375 0  0.09375 0.9375 0  0.125 0.9375 0  0.15625 0.9375 0  0.1875 0.9375 0  0.21875 0.9375 0  0.25 0.9375 0  0.28125 0.9375 0  0.3125 0.9375 0  0.34375 0.9375 0  0.375 0.9375 0  0.40625 0.9375 0  0.4375 0.9375 0  0.46875 0.9375 0  0.5 0.9375 0  0.53125 0.9375 0  0.5625 0.9375 0  0.59375 0.9375 0  0.625 0.9375 0  0.65625 0.9375 0  0.6875 0.9375 0  0.71875 0.9375 0  0.75 0.9375 0  0.78125 0.9375 0  0.8125 0.9375 0  0.84375 0.9375 0  0.875 0.9375 0  0.90625 0.9375 0  0.9375 0.9375 0  0.96875 0.9375 0  1 0.9375 0  0.03125 0.984375 0  0 0.984375 0  0.0625 0.984375 0  0.09375 0.984375 0  0.125 0.984375 0  0.15625 0.984375 0  0.1875 0.984375 0  0.21875 0.984375 0  0.25 0.984375 0  0.28125 0.984375 0  0.3125 0.984375 0  0.34375 0.984375 0  0.375 0.984375 0  0.40625 0.984375 0  0.4375 0.984375 0  0.46875 0.984375 0  0.5 0.984375 0  0.53125 0.984375 0  0.5625 0.984375 0  0.59375 0.984375 0  0.625 0.984375 0  0.65625 0.984375 0  0.6875 0.984375 0  0.71875 0.984375 0  0.75 0.984375 0  0.78125 0.984375 0  0.8125 0.984375 0  0.84375 0.984375 0  0.875 0.984375 0  0.90625 0.984375 0  0.9375 0.984375 0  0.96875 0.984375 0  1 0.984375 0  0.03125 1.03125 0  0 1.03125 0  0.0625 1.03125 0  0.09375 1.03125 0  0.125 1.03125 0  0.15625 1.03125 0  0.1875 1.03125 0  0.21875 1.03125 0  0.25 1.03125 0  0.28125 1.03125 0  0.3125 1.03125 0  0.34375 1.03125 0  0.375 1.03125 0  0.40625 1.03125 0  0.4375 1.03125 0  0.46875 1.03125 0  0.5 1.03125 0  0.53125 1.03125 0  0.5625 1.03125 0  0.59375 1.03125 0  0.625 1.03125 0  0.65625 1.03125 0  0.6875 1.03125 0  0.71875 1.03125 0  0.75 1.03125 0  0.78125 1.03125 0  0.8125 1.03125 0  0.84375 1.03125 0  0.875 1.03125 0  0.90625 1.03125 0  0.9375 1.03125 0  0.96875 1.03125 0  1 1.03125 0  0.03125 1.078125 0  0 1.078125 0  0.0625 1.078125 0  0.09375 1.078125 0  0.125 1.078125 0  0.15625 1.078125 0  0.1875 1.078125 0  0.21875 1.078125 0  0.25 1.078125 0  0.28125 1.078125 0  0.3125 1.078125 0  0.34375 1.078125 0  0.375 1.078125 0  0.40625 1.078125 0  0.4375 1.078125 0  0.46875 1.078125 0  0.5 1.078125 0  0.53125 1.078125 0  0.5625 1.078125 0  0.59375 1.078125 0  0.625 1.078125 0  0.65625 1.078125 0  0.6875 1.078125 0  0.71875 1.078125 0  0.75 1.078125 0  0.78125 1.078125 0  0.8125 1.078125 0  0.84375 1.078125 0  0.875 1.078125 0  0.90625 1.078125 0  0.9375 1.078125 0  0.96875 1.078125 0  1 1.078125 0  0.03125 1.125 0  0 1.125 0  0.0625 1.125 0  0.09375 1.125 0  0.125 1.125 0  0.15625 1.125 0  0.1875 1.125 0  0.21875 1.125 0  0.25 1.125 0  0.28125 1.125 0  0.3125 1.125 0  0.34375 1.125 0  0.375 1.125 0  0.40625 1.125 0  0.4375 1.125 0  0.46875 1.125 0  0.5 1.125 0  0.53125 1.125 0  0.5625 1.125 0  0.59375 1.125 0  0.625 1.125 0  0.65625 1.125 0  0.6875 1.125 0  0.71875 1.125 0  0.75 1.125 0  0.78125 1.125 0  0.8125 1.125 0  0.84375 1.125 0  0.875 1.125 0  0.90625 1.125 0  0.9375 1.125 0  0.96875 1.125 0  1 1.125 0  0.03125 1.171875 0  0 1.171875 0  0.0625 1.171875 0  0.09375 1.171875 0  0.125 1.171875 0  0.15625 1.171875 0  0.1875 1.171875 0  0.21875 1.171875 0  0.25 1.171875 0  0.28125 1.171875 0  0.3125 1.171875 0  0.34375 1.171875 0  0.375 1.171875 0  0.40625 1.171875 0  0.4375 1.171875 0  0.46875 1.171875 0  0.5 1.171875 0  0.53125 1.171875 0  0.5625 1.171875 0  0.59375 1.171875 0  0.625 1.171875 0  0.65625 1.171875 0  0.6875 1.171875 0  0.71875 1.171875 0  0.75 1.171875 0  0.78125 1.171875 0  0.8125 1.171875 0  0.84375 1.171875 0  0.875 1.171875 0  0.90625 1.171875 0  0.9375 1.171875 0  0.96875 1.171875 0  1 1.171875 0  0.03125 1.21875 0  0 1.21875 0  0.0625 1.21875 0  0.09375 1.21875 0  0.125 1.21875 0  0.15625 1.21875 0  0.1875 1.21875 0  0.21875 1.21875 0  0.25 1.21875 0  0.28125 1.21875 0  0.3125 1.21875 0  0.34375 1.21875 0  0.375 1.21875 0  0.40625 1.21875 0  0.4375 1.21875 0  0.46875 1.21875 0  0.5 1.21875 0  0.53125 1.21875 0  0.5
[...]
<PointData  Scalars="p"> 
<DataArray  type="Float64"  Name="p"  format="ascii">0.0000000000000000e+00  -9.4262629344992258e-03  -9.8744912908858250e-03  0.0000000000000000e+00  -1.6254135628029145e-02  -1.7002826154453903e-02  -2.0955994358718765e-02  -2.1912212994887152e-02  -2.3931995851290699e-02  -2.5027047921111649e-02  -2.5512325029731320e-02  -2.6690420297484321e-02  -2.5966228008425237e-02  -2.7179953423892983e-02  -2.5512144398865119e-02  -2.6720340121644200e-02  -2.4326995213385615e-02  -2.5493766070020282e-02  -2.2554311043563261e-02  -2.3648361776722616e-02  -2.0310994461643035e-02  -2.1305320381988634e-02  -1.7693040124746606e-02  -1.8564605814504181e-02  -1.4780236190843191e-02  -1.5509856290745389e-02  -1.1640126247866237e-02  -1.2212281895155228e-02  -8.3312825810715058e-03  -8.7340891037525625e-03  -4.9061581793618499e-03  -5.1312872856654618e-03  -1.4135213617317054e-03  -1.4562477701424150e-03  2.0993186841824448e-03  2.2400888687458382e-03  5.5844339269470146e-03  5.9060298622443178e-03  8.9911932609756575e-03  9.4870487977137975e-03  1.2264139126391059e-02  1.2923574652654044e-02  1.5340661800505261e-02  1.6148673682756486e-02  1.8148386248957343e-02  1.9085364419985307e-02  2.0602125711483676e-02  2.1643588541194594e-02  2.2600296333126445e-02  2.3716563054232087e-02  2.4020540129640736e-02  2.5176438421544975e-02  2.4714440072046925e-02  2.5868948280628159e-02  2.4500980789056544e-02  2.5606957080830415e-02  2.3158555724984764e-02  2.4162500993424877e-02  2.0415058481085699e-02  2.1257337755879388e-02  1.5935319479084876e-02  1.6551720793187216e-02  9.3041155010533082e-03  9.6320865205169748e-03  0.0000000000000000e+00  0.0000000000000000e+00  -1.0919505345874223e-02  0.0000000000000000e+00  -1.8823145231462859e-02  -2.4290519826221040e-02  -2.7785187571625264e-02  -2.9679393307874412e-02  -3.0272978265080866e-02  -2.9808520577705166e-02  -2.8482984244480015e-02  -2.6457459061171838e-02  -2.3864556803715981e-02  -2.0814860308527430e-02  -1.7401772530956941e-02  -1.3705927394245152e-02  -9.7984897300746835e-03  -5.7443718359920324e-03  -1.6046930828826438e-03  2.5606793444931048e-03  6.6909876255861946e-03  1.0722225842773377e-02  1.4584945209399661e-02  1.8201690525717559e-02  2.1484333040603747e-02  2.4330797487161774e-02  2.6621434300479384e-02  2.8214386958258390e-02  2.8940164864503144e-02  2.8594725153902996e-02  2.6931122546507102e-02  2.3649044670658467e-02  1.8382118284947877e-02  1.0682183767341770e-02  0.0000000000000000e+00  -1.2507051884161041e-02  0.0000000000000000e+00  -2.1572474496370866e-02  -2.7862693083723016e-02  -3.1905644955069368e-02  -3.4121845358606191e-02  -3.4848495531667981e-02  -3.4357505323711360e-02  -3.2870053548730752e-02  -3.0567290998112978e-02  -2.7599523338358124e-02  -2.4092692839910113e-02  -2.0154507088854155e-02  -1.5878524270021351e-02  -1.1348476528010840e-02  -6.6411068787100968e-03  -1.8294802322829913e-03  3.0147812750695034e-03  7.8186410245366256e-03  1.2505492098051149e-02  1.6992358548632389e-02  2.1187454140984795e-02  2.4986949753086816e-02  2.8271763785615758e-02  3.0903293719531672e-02  3.2718682567824960e-02  3.3524464936130934e-02  3.3089049864032556e-02  3.1132658470349427e-02  2.7314935536145436e-02  2.1218483976816919e-02  1.2327647939440306e-02  0.0000000000000000e+00  -1.4624826155550061e-02  0.0000000000000000e+00  -2.5215621370498913e-02  -3.2565232569315962e-02  -3.7295550559063549e-02  -3.9898183093246761e-02  -4.0764575929165402e-02  -4.0209462405023974e-02  -3.8487879094499973e-02  -3.5809225344927482e-02  -3.2346977313701820e-02  -2.8247568957270659e-02  -2.3636101963900358e-02  -1.8622419072412664e-02  -1.3304608763943418e-02  -7.7736311652926134e-03  -2.1157479694631238e-03  3.5836419170414292e-03  9.2379026113015520e-03  1.4755604831242240e-02  2.0038295423319252e-02  2.4976832772798618e-02  2.9448499701990725e-02  3.3312609125116070e-02  3.6406306608544110e-02  3.8538429947350072e-02  3.9482648463475836e-02  3.8967868594867970e-02  3.6666394437347143e-02  3.2177809281814046e-02  2.5008055366395832e-02  1.4540931915511953e-02  0.0000000000000000e+00  -1.7295212289040303e-02  0.0000000000000000e+00  -2.9784492993502752e-02  -3.8429441515388241e-02  -4.3978992756208576e-02  -4.7020939344756443e-02  -4.8020860887532241e-02  -4.7350875558595407e-02  -4.5311877251564270e-02  -4.2149652409229091e-02  -3.8068099891188104e-02  -3.3238299746498813e-02  -2.7807113684927789e-02  -2.1902366479459173e-02  -1.5639143284105594e-02  -9.1229518660320488e-03  -2.4549851832777430e-03  4.2657043307255064e-03  1.0937339640914274e-02  1.7453383313335395e-02  2.3697797578789235e-02  2.9542523837606548e-02  3.4842396763445124e-02  3.9431323504575712e-02  4.3116002735137542e-02  4.5669588928437713e-02  4.6822375135179679e-02  4.6250729930387806e-02  4.3561590905629888e-02  3.8272557804645231e-02  2.9784573027469046e-02  1.7345402276135402e-02  0.0000000000000000e+00  -2.0566337806952412e-02  0.0000000000000000e+00  -3.5355724619180733e-02  -4.5545781853617517e-02  -5.2049068425827322e-02  -5.5578315259918409e-02  -5.6695231551556910e-02  -5.5846885522785050e-02  -5.3392926557457275e-02  -4.9626150632462160e-02  -4.4787837124089874e-02  -3.9079953338934978e-02  -3.2674081429351888e-02  -2.5719565422745394e-02  -1.8348826331511477e-02  -1.0683939758184611e-02  -2.8399219176831118e-03  5.0691232316284647e-03  1.2927645157907350e-02  2.0612394473839703e-02  2.7990083570338151e-02  3.4910963495308554e-02  4.1205372676270904e-02  4.6676631959095688e-02  5.1095174118268541e-02  5.4189224015242801e-02  5.5634330222240257e-02  5.5038737470086294e-02  5.1924501098831434e-02  4.5701954106178562e-02  3.5635327479588405e-02  2.0796116316818006e-02  0.0000000000000000e+00  -2.4505591485771271e-02  0.0000000000000000e+00  -4.2037520434870718e-02  -5.4043303958695985e-02  -6.1640979621230121e-02  -6.5700982940878699e-02  -6.6906854999067747e-02  -6.5800698813242950e-02  -6.2816588479997881e-02  -5.8306089287477048e-02  -5.2556939433405857e-02  -4.5807914952605396e-02  -3.8260094994596726e-02  -3.0086099405006107e-02  -2.1437934454370290e-02  -1.2453202676799509e-02  -3.2618895006357733e-03  6.0093062492705806e-03  1.5229948705703718e-02  2.4262365406172381e-02  3.2954002506506132e-02  4.1133663583863646e-02  4.8603087990440441e-02  5.5131250139218935e-02  6.0444449147021767e-02  6.4216384397760437e-02  6.6053949558828956e-02  6.5479613791703334e-02  6.1907531675242287e-02  5.4611694129778683e-02  4.2682833318605749e-02  2.4969748086903581e-02  0.0000000000000000e+00  -2.9195996337960134e-02  0.0000000000000000e+00  -4.9961999819107553e-02  -6.4077751798569699e-02  -7.2915408310536389e-02  -7.7541406131389254e-02  -7.8791456327186385e-02  -7.7326546114320507e-02  -7.3673829375518640e-02  -6.8257754379025468e-02  -6.1422957847348782e-02  -5.3452279429790424e-02  -4.4580773360136647e-02  -3.5007035787654954e-02  -2.4902937774189657e-02  -1.4421839615755251e-02  -3.7063506290491407e-03  7.1046127963653068e-03  1.7869042972935276e-02  2.8434362071240820e-02  3.8631133632809123e-02  4.8264164384161271e-02  5.7105621345668101e-02  6.4883971591356115e-02  7.1274384130374735e-02  7.5883940002800174e-02  7.8235383269422046e-02  7.7744263948795453e-02  7.3689852810479156e-02  6.5175398804933241e-02  5.1074800470090706e-02  2.9959562434721521e-02  0.0000000000000000e+00  -3.4734859600434632e-02  0.0000000000000000e+00  -5.9281311593483980e-02  -7.5824054357500489e-02  -8.6047033301299952e-02  -9.1258099344108778e-02  -9.2482050477932315e-02  -9.0527292093311743e-02  -8.6037090129999147e-02  -7.9525344137093473e-02  -7.1406333833107141e-02  -6.2014770387905344e-02  -5.1624859816494666e-02  -4.0462999544640624e-02  -2.8721035871472744e-02  -1.6566364344131997e-02  -4.1516455689643217e-03  8.3753414267476456e-03  2.0863830830577440e-02  3.3149640170263527e-02  4.5047137914708171e-02  5.6338628494523563e-02  6.6763268258270989e-02  7.6005746145958508e-02  8.3680296300702575e-02  8.9315423183354184e-02  9.2330392837472616e-02  9.2009454425527909e-02  8.7464067876347085e-02  7.7585669560236464e-02  6.0979108372432235e-02  3.5873574761309410e-02  0.0000000000000000e+00  -4.1233358410716223e-02  0.0000000000000000e+00  -7.0164385813089605e-02  -8.9469181403358258e-02  -1.0121198442884195e-01  -1.0699850084740052e-01  -1.0808681388020185e-01  -1.0546966493594255e-01  -9.9932971339442567e-02  -9.2102143512727913e-02  -8.2473935164055046e-02  -7.1445577297568216e-02  -5.9333593411920980e-02  -4.6394651004428092e-02  -3.2838259406029448e-02  -1.8842919025069002e-02  -4.5670624227191281e-03  9.8385221848320877e-03  2.4218595831872698e-02  3.8403103451799502e-02  5.2193268659399196e-02  6.5350573612862367e-02  7.7581456461968623e-02  8.8520962573031547e-02  9.7715610616883941e-02  1.0459865929835377e-01  1.0846587593487690e-01  1.0843869397245655e-01  1.0342214718066971e-01  9.2044470411667301e-02  7.2578656988292037e-02  4.2832559904751460e-02  0.0000000000000000e+00  -4.8815832025089982e-02  0.0000000000000000e+00  -8.2792774707665481e-02  -1.0520119158189313e-01  -1.1857045836426700e-01  -1.2487342635804594e-01  -1.2565908432792752e-01  -1.2214883989906189e-01  -1.1530708048183401e-01  -1.0589399669757978e-01  -9.4507199406196507e-02  -8.1613588235076487e-02  -6.7578047585438603e-02  -5.2684649901839270e-02  -3.7158821993321552e-02  -2.1182930840757501e-02  -4.9148056088735249e-03  1.1499392945287753e-02  2.7908602329128340e-02  4.4143355833904878e-02  5.9999511613862980e-02  7.5221507159366513e-02  8.9484345063173654e-02  1.0237191974352894e-01  1.1335226402017998e-01  1.2174982250080632e-01  1.2670901564498646e-01  1.2715404930010193e-01  1.2173301527415269e-01  1.0874896755109008e-01  8.6063796676628251e-02  5.0967992169526195e-02  0.0000000000000000e+00  -5.7618680271491862e-02  0.0000000000000000e+00  -9.7352436990340838e-02  -1.2319129460250713e-01  -1.3823636338993436e-01  -1.4491757152029114e-01  -1.4514867019857861e-01  -1.4043806282108245e-01  -1.3197110019589264e-01  -1.2067267154695949e-01  -1.0725779966648456e-01  -9.2272602141824353e-02  -7.6130045775378880e-02  -5.9139527795271804e-02  -4.1533466678582792e-02  -2.3490614787896234e-02  -5.1558762839791520e-03  1.3338726580527472e-02  3.1858822581410456e-02  5.0245559469092115e-02  6.8299889745456491e-02  8.5757915246931660e-02  1.0226781809609396e-01  1.1736246269507949e-01  1.3042546039835770e-01  1.4065440494910858e-01  1.4701555428415472e-01  1.4819003133925149e-01  1.4250902616217753e-01  1.2786909507634475e-01  1.0162166229027764e-01  6.0418865085878577e-02  0.0000000000000000e+00  -6.7786825144342602e-02  0.0000000000000000e+00  -1.1401759314449164e-01  -1.4355926362362798e-01  -1.6022422432115352e-01  -1.6702018574197475e-01  -1.6632417709662772e-01  -1.6000685693967612e-01  -1.4952677562482619e-01  -1.3600588438602115e-01  -1.2029233133327789e-01  -1.0301562354373292e-01  -8.4632446949061871e-02  -6.5468477501398670e-02  -4.5751505232095348e-02  -2.5642138969655840e-02  -5.2597645183804428e-03  1.5295144380281494e-02  3.5916621710581242e-02  5.6474268914659988e-02  7.6785812287394048e-02  9.6593339872535600e-02  1.1552954174937841e-01  1.3308098007394348e-01  1.4854612366960307e-01  1.6098158901928578e-01  1.6914407234636286e-01  1.7142050260983022e-01  1.6574634379955608e-01  1.4950812768857760e-01  1.1941487890136919e-01  7.1325139435376814e-02  0.0000000000000000e+00  -7.9466592637195382e-02  0.0000000000000000e+00  -1.3291963951913335e-01  -1.6630991278666168e-01  -1.8435460545417612e-01  -1.9080852155408831e-01  -1.8864644332364183e-01  -1.8019764025742677e-01  -1.6725369503454063e-01  -1.5116355635426554e-01  -1.3291751648040609e-01  -1.1322148008627805e-01  -9.2563098706479510e-02  -7.1265277830314722e-02  -4.9533462497328852e-02  -2.7492267480665349e-02  -5.2165628379580841e-03  1.7239857200316514e-02  3.9819996714303599e-02  6.2436608725921168e-02  8.4945878306355291e-02  1.0711322033719738e-01  1.2857518437205151e-01  1.4878944667024530e-01  1.6697572462313476e-01  1.8204576470522971e-01  1.9251894369546302e-01  1.9642960553156788e-01  1.9122201178257223e-01  1.7363186063579375e-01  1.3954670118043655e-01  8.3818928235697018e-02  0.0000000000000000e+00  -9.2788577319855958e-02  0.0000000000000000e+00  -1.5408136971242775e-01  -1.9120773401476635e-01  -2.1007921262722712e-01  -2.1544551764155895e-01  -2.1106422205756897e-01  -1.9983945609243656e-01  -1.8395404815721819e-01  -1.6499875668163863e-01  -1.4409415676273499e-01  -1.2199874452358288e-01  -9.9200689002477957e-02  -7.5992661532455638e-02  -5.2530651389331454e-02  -2.8881315169211805e-02  -5.0571275157103458e-03  1.8953757094718207e-02  4.3159341111061247e-02  6.7536423648974206e-02  9.2000024535772745e-02  1.1636681723205063e-01  1.4030546922401352e-01  1.6327551235246013e-01  1.8444679718539456e-01  2.0260004447107050e-01  2.1600830324253872e-01  2.2229978947430687e-01  2.1831150759964496e-01  1.9994097731513455e-01  1.6199330258925629e-01  9.8006594566762376e-02  0.0000000000000000e+00  -1.0782369770165673e-01  0.0000000000000000e+00  -1.7727050657057691e-01  -2.1752022332797719e-01  -2.3614834508430022e-01  -2.3927587144925516e-01  -2.3168587060917589e-01  -2.1697574613281792e-01  -1.9774704726941120e-01  -1.7580545366270076e-01  -1.5235060308618503e-01  -1.2813752601350337e-01  -1.0360544082641723e-01  -7.8976873541569806e-02  -5.4328703071301589e-02  -2.9646575587635941e-02  -4.8643937524207037e-03  2.0107831120696407e-02  4.5356436767894914e-02  7.0938285805709184e-02  9.6849978362222811e-02  1.2298810121197334e-01  1.4909530842948623e-01  1.7468315136024168e-01  1.9893029361692696e-01  2.2054332513254141e-01  2.3758082522106025e-01  2.4724436787988643e-01  2.4564989119832864e-01  2.2761029332606755e-01  1.8645948842060595e-01  1.1392682649459689e-01  0.0000000000000000e+00  -1.2447317900038828e-01  0.0000000000000000e+00  -2.0166624540954470e-01  -2.4348395959122612e-01  -2.5998687747840327e-01  -2.5922797345437681e-01  -2.4728639375288802e-01  -2.2850551896652380e-01  -2.0583583556694771e-01  -1.8118489287932382e-01  -1.5571603723925712e-01  -1.3008635667765645e-01  -1.0461775822299990e-01  -7.9416273733019058e-02  -5.4454113657184625e-02  -2.9622553258648307e-02  -4.7695949591679268e-03  2.0273962232703183e-02  4.5675561825495550e-02  7.1577690635701657e-02  9.8072507247937313e-02  1.2516449549077066e-01  1.5271469245546385e-01  1.8035894615659961e-01  2.0738111726518124e-01  2.3253274223408757e-01  2.5378195975690415e-01  2.6798401748738448e-01  2.7049099711072266e-01  2.5475803881605263e-01  2.1206151752862926e-01  1.3145910050752549e-01  0.0000000000000000e+00  -1.4216743956743066e-01  0.0000000000000000e+00  -2.2504863282720530e-01  -2.6516565810566195e-01  -2.7654000197603557e-01  -2.6987346837402243e-01  -2.5266124741429136e-01  -2.2980558587616881e-01  -2.0432884668477866e-01  -1.7798759259516977e-01  -1.5172398706950854e-01  -1.2597515476942306e-01  -1.0087671601118611e-01  -7.6387261300699311e-02  -5.2364390379843966e-02  -2.8611388187283881e-02  -4.9048456104650402e-03  1.8989019817232718e-02  4.3301184875049033e-02  6.8247987119306214e-02  9.4012258883691052e-02  1.2071608392631533e-01  1.4837501701803926e-01  1.7681824366147086e-01  2.0556010905526473e-01  2.3359230136717529e-01  2.5905873925545431e-01  2.7876837548179362e-01  2.8752139670784860e-01  2.7730078734352459e-01  2.3655629159277675e-01  1.5007602671579459e-01  0.0000000000000000e+00  -1.5892917023661685e-01  0.0000000000000000e+00  -2.4171351061283508e-01  -2.7407185485682528e-01  -2.7634106240544698e-01  -2.6222295005003138e-01  -2.4005838047695643e-01  -2.1457599688924775e-01  -1.8828955290164248e-01  -1.6243115788490478e-01  -1.3751794310371215e-01  -1.1367766584876524e-01  -9.0834352081916966e-02  -6.8809705473835622e-02  -4.7376128426400599e-02  -2.6284471292535076e-02  -5.2779344573141629e-03  1.5901528041132446e-02  3.7511104881517342e-02  5.9802550574047680e-02  8.3016192854457799e-02  1.0736700121990435e-01  1.3301599521872809e-01  1.6001532240655264e-01  1.8820634705189448e-01  2.1703441219977992e-01  2.4521123315134069e-01  2.7012300191895922e-01  2.8682769818055703e-01  2.8648409372088446e-01  2.5431050074068418e-01  1.6809031607397112e-01  0.0000000000000000e+00  -1.6791848823717165e-01  0.0000000000000000e+00  -2.3696403124867632e-01  -2.5271121461756846e-01  -2.4322041138649439e-01  -2.2313119700162523e-01  -1.9946887374280750e-01  -1.7540376521861989e-01  -1.5224718538846393e-01  -1.3043621454478610e-01  -1.1000692176700715e-01  -9.0817780365515521e-02  -7.2655368837773127e-02  -5.5283005703123375e-02  -3.8461196503290863e-02  -2.1954903163112934e-02  -5.5347595036572099e-03  1.1025353889610137e-02  2.7951023809756146e-02  4.5470645192997795e-02  6.3816827901034934e-02  8.3225494194931471e-02  1.0392749393415743e-01  1.2612729039598261e-01  1.4995674215165605e-01  1.7537146869060369e-01  2.0193251644218810e-01  2.2834211074094135e-01  2.5143820140579942e-01  2.6404167996975497e-01  2.5058131745839934e-01  1.7977379592481660e-01  0.0000000000000000e+00  -1.4306360565038279e-01  0.0000000000000000e+00  -1.7503340967228226e-01  -1.7054132081057150e-01  -1.5539696933629363e-01  -1.3803595504664806e-01  -1.2113462397390656e-01  -1.0544727858009013e-01  -9.1076675150025210e-02  -7.7908426574357398e-02  -6.5764030879564270e-02  -5.4454714224095167e-02  -4.3800330846490383e-02  -3.3634306426559270e-02  -2.3802690438459971e-02  -1.4161577337754722e-02  -4.5737173879367536e-03  5.0949374142392053e-03  1.4978959795544273e-02  2.5216710440908636e-02  3.5954140617775153e-02  4.7347688962899127e-02  5.9566446533933913e-02  7.2792879056211332e-02  8.7218595023768095e-02  1.0302812657773121e-01  1.2035448885683350e-01  1.3915782008984104e-01  1.5887312773673784e-01  1.7732172303483409e-01  1.8699800022557914e-01  1.6120688475189310e-01  0.0000000000000000e+00  0.0000000000000000e+00  0.0000000000000000e+00  0.0000000000000000e+00  0.0000000000000000e+00  0.0000000000000000e+00  0.0000000000000000e+00  0.0000000000000000e+00  0.0000000000000000e+00  0.0000000000000000e+00  0.0000000000000000e+00  0.0000000000000000e+00  0.0000000000000000e+00  0.0000000000000000e+00  0.0000000000000000e+00  0.0000000000000000e+00  0.0000000000000000e+00  0.0000000000000000e+00  0.0000000000000000e+00  0.0000000000000000e+00  0.0000000000000000e+00  0.0000000000000000e+00  0.0000000000000000e+00  0.0000000000000000e+00  0.0000000000000000e+00  0.0000000000000000e+00  0.0000000000000000e+00  0.0000000000000000e+00  0.0000000000000000e+00  0.0000000000000000e+00  0.0000000000000000e+00  0.0000000000000000e+00  0.0000000000000000e+00  0.0000000000000000e+00  </DataArray> 
</PointData> 
</Piece>
</UnstructuredGrid>
</VTKFile>