<?xml version="1.0"?>
<VTKFile type="UnstructuredGrid"  version="0.1"  >
<UnstructuredGrid>
<Piece  NumberOfPoints="825" NumberOfCells="1536">
<Points>
<DataArray  type="Float64"  NumberOfComponents="3"  format="ascii">-1.05277337521568e-21 0.5 0  0.06250000432772164 0.4999999619021079 0  0.06250004877462939 0.5624999665837045 0  4.590135654438742e-08 0.5624999996752451 0  0.1250000157592975 0.4999999368844827 0  0.1250000544489167 0.562499943303932 0  0.1875000328121467 0.4999999236534849 0  0.1875000636665367 0.5624999287217061 0  0.250000053209288 0.4999999186751526 0  0.2500000760267982 0.5624999210398298 0  0.3125000741117679 0.4999999169088601 0  0.3125000905363737 0.5624999178357647 0  0.3750000962524121 0.4999999189142584 0  0.3750001062143515 0.5624999178642993 0  0.4375001182574543 0.4999999228870727 0  0.4375001226272426 0.5624999201110936 0  0.5000001387191679 0.4999999262955787 0  0.500000139153893 0.5624999230500273 0  0.562500158105291 0.4999999290215628 0  0.5625001552615059 0.5624999261871614 0  0.6250001766573827 0.4999999320253961 0  0.6250001709215823 0.5624999297645518 0  0.6875001939263911 0.4999999348623136 0  0.6875001859304531 0.5624999332763089 0  0.7500002095524874 0.4999999366423304 0  0.7500001999182534 0.5624999367861517 0  0.8125002249301113 0.4999999402682098 0  0.8125002132098498 0.5624999413818231 0  0.8750002396740776 0.4999999451099308 0  0.8750002258408072 0.5624999471476024 0  0.9375002543377946 0.4999999519058048 0  0.9375002376420026 0.5624999548604556 0  1.000000271011753 0.499999964680314 0  1.000000248875983 0.5624999654487418 0  1.062500284340899 0.4999999767397041 0  1.06250025887181 0.5624999770919721 0  1.125000293649814 0.499999987499189 0  1.125000266544196 0.5624999889416031 0  1.18750029973419 0.4999999992194766 0  1.187500271807367 0.5625000016701651 0  1.250000304443383 0.5000000134281438 0  1.250000274545622 0.56250001536105 0  1.312500304378309 0.5000000268141506 0  1.312500274421384 0.562500029872864 0  1.375000300872885 0.5000000424435563 0  1.375000271463849 0.5625000459281135 0  1.437500295379227 0.5000000618210222 0  1.437500265706111 0.5625000636222497 0  1.500000284872721 0.5000000827649631 0  1.50000025719756 0.5625000821509062 0  1.562500270044675 0.5000001034873336 0  1.562500246259627 0.5625000997398533 0  1.625000252294284 0.5000001198880325 0  1.625000232787758 0.5625001136866798 0  1.687500228630756 0.5000001279994897 0  1.687500216398427 0.5625001218934911 0  1.750000198658146 0.5000001275814437 0  1.750000197139372 0.5625001231509791 0  1.812500163424383 0.5000001184657755 0  1.812500175568655 0.5625001161847181 0  1.875000119763984 0.5000000966287802 0  1.875000153128434 0.5625000988591806 0  1.937500065024968 0.500000057537532 0  1.937500134083342 0.5625000672667773 0  2 0.5 0  2.000000131347607 0.5625000073072093 0  0.06250008014487041 0.6249999658947791 0  7.890470631213561e-08 0.6249999907166287 0  0.1250000829400965 0.6249999460753286 0  0.187500088029433 0.6249999322432944 0  0.2500000955445949 0.6249999238091957 0  0.3125001051146795 0.6249999195765916 0  0.3750001161829032 0.6249999184737515 0  0.4375001283084424 0.6249999195706636 0  0.5000001410379304 0.6249999219427269 0  0.5625001539214111 0.6249999250550662 0  0.6250001666889825 0.6249999287136068 0  0.687500179115156 0.6249999327368226 0  0.7500001909325339 0.6249999372150181 0  0.8125002020490724 0.6249999425383911 0  0.8750002124037404 0.6249999490581805 0  0.9375002218837799 0.6249999572121275 0  1.000000230497378 0.6249999671968097 0  1.062500238039772 0.6249999784930422 0  1.125000244019649 0.6249999906031045 0  1.187500248111274 0.6250000035112999 0  1.250000250156372 0.6250000172691885 0  1.312500250018658 0.6250000319230024 0  1.375000247682312 0.6250000475616114 0  1.437500243309653 0.6250000640311877 0  1.500000237172333 0.6250000806087401 0  1.562500229565508 0.6250000959120156 0  1.625000220658818 0.6250001082045215 0  1.687500210591132 0.6250001159078218 0  1.750000199793299 0.6250001177337561 0  1.812500189259059 0.6250001124320307 0  1.875000180790186 0.6250000984524026 0  1.937500176984538 0.6250000739300393 0  2.000000177936443 0.6250000416128763 0  0.06250010225204831 0.6874999623471184 0  1.016372490694184e-07 0.6874999803459942 0  0.1250001036719998 0.6874999465113185 0  0.1875001064929241 0.6874999344276772 0  0.2500001110236896 0.6874999263110125 0  0.3125001172317739 0.6874999217025499 0  0.3750001248748789 0.6874999199309696 0  0.4375001336463892 0.687499920302904 0  0.5000001432023901 0.6874999221795567 0  0.5625001531906434 0.6874999251000597 0  0.625000163312146 0.6874999287978069 0  0.6875001733032382 0.6874999331412224 0  0.7500001829180609 0.6874999381670422 0  0.8125001919779794 0.6874999440674662 0  0.8750002003556706 0.6874999510937272 0  0.9375002079574217 0.6874999594807752 0  1.000000214730249 0.6874999692930394 0  1.062500220551802 0.6874999803316971 0  1.125000225185051 0.6874999923348672 0  1.187500228407248 0.6875000051686807 0  1.250000230080348 0.6875000187806121 0  1.312500230148873 0.6875000331226404 0  1.375000228668991 0.687500048084172 0  1.437500225830962 0.687500063353792 0  1.500000221923511 0.687500078267582 0  1.562500217260617 0.6875000917880316 0  1.62500021212786 0.687500102670162 0  1.687500206838221 0.6875001096941132 0  1.75000020186441 0.6875001117858877 0  1.812500197912658 0.6875001080352634 0  1.875000195781141 0.6875000978734745 0  1.937500195692351 0.6875000821510657 0  2.00000019626837 0.6875000667234255 0  0.0625001175706732 0.7499999573687668 0  1.17272591093032e-07 0.749999970144572 0  0.1250001183092848 0.7499999452691464 0  0.1875001198824605 0.7499999353477932 0  0.2500001226017129 0.7499999281862679 0  0.3125001265816872 0.749999923769413 0  0.3750001317632294 0.7499999217768049 0  0.4375001379773276 0.7499999217718422 0  0.5000001449885217 0.7499999233169754 0  0.5625001525302334 0.7499999260559076 0  0.6250001603386973 0.749999929748436 0  0.6875001681649084 0.749999934271339 0  0.7500001757821969 0.7499999396197498 0  0.8125001830047717 0.7499999458877069 0  0.8750001896934777 0.7499999532164382 0  0.9375001957520862 0.7499999617264361 0  1.000000201110976 0.7499999714408457 0  1.062500205682058 0.7499999822586667 0  1.125000209339005 0.7499999940207568 0  1.187500211957503 0.7500000065857726 0  1.250000213461989 0.7500000198365925 0  1.312500213851475 0.7500000336399486 0  1.375000213217646 0.750000047785624 0  1.437500211748788 0.7500000619073752 0  1.500000209704299 0.7500000754177002 0  1.562500207369097 0.7500000875129532 0  1.625000205021668 0.750000097268821 0  1.687500202941519 0.7500001037803889 0  1.750000201427165 0.7500001062963405 0  1.812500200748957 0.7500001043885064 0  1.87500020096165 0.7500000983420358 0  1.937500201621325 0.7500000900649653 0  2.000000201917829 0.7500000844593274 0  0.06250012788176189 0.8124999518666717 0  1.27750409140055e-07 0.8124999606106631 0  0.1250001282573601 0.8124999430008751 0  0.1875001291256755 0.8124999352804757 0  0.2500001307395142 0.8124999293896932 0  0.3125001332532808 0.812499925553216 0  0.3750001366995849 0.8124999237004509 0  0.4375001410081635 0.8124999236075851 0  0.5000001460345298 0.8124999250017002 0  0.562500151588934 0.8124999276320959 0  0.6250001574624537 0.8124999313105367 0  0.6875001634456291 0.8124999359273959 0  0.7500001693432731 0.8124999414528952 0  0.8125001749886513 0.8124999479215914 0  0.875000180251843 0.812499955398901 0  0.9375001850392237 0.8124999639366539 0  1.000000189281558 0.8124999735317909 0  1.062500192913609 0.8124999841122504 0  1.125000195865294 0.8124999955586255 0  1.187500198076754 0.8125000077335541 0  1.250000199523905 0.8125000204877478 0  1.312500200239342 0.8125000336388387 0  1.375000200323639 0.8125000469333125 0  1.43750019994258 0.812500060004256 0  1.50000019930666 0.8125000723461812 0  1.562500198638948 0.8125000833319422 0  1.625000198145564 0.8125000922812422 0  1.687500197995359 0.8125000985687316 0  1.750000198293414 0.8125001017645472 0  1.812500199022417 0.8125001018398758 0  1.87500019995819 0.8125000995089886 0  1.937500200670555 0.8125000967195636 0  2.000000200836979 0.8125000970042133 0  0.06250013440933584 0.8749999463440098 0  1.343614397169799e-07 0.874999951935809 0  0.1250001345849849 0.8749999401949461 0  0.1875001350436321 0.8749999345276354 0  0.2500001359737805 0.8749999300102317 0  0.3125001375219075 0.8749999269779548 0  0.3750001397576491 0.8749999255175532 0  0.4375001426705667 0.8749999255611275 0  0.5000001461830712 0.8749999269663816 0  0.5625001501696729 0.8749999295764896 0  0.6250001544771306 0.8749999332587258 0  0.6875001589424363 0.8749999379244502 0  0.7500001634083316 0.874999943533772 0  0.8125001677362038 0.8749999500863217 0  0.8750001718142869 0.8749999576001658 0  0.937500175559104 0.8749999660844262 0  1.000000178909687 0.8749999755150925 0  1.06250018181842 0.8749999858244447 0  1.125000184247118 0.8749999969060865 0  1.187500186173495 0.8750000086247479 0  1.250000187604114 0.8750000208176506 0  1.312500188586192 0.875000033282882 0  1.37500018921246 0.8750000457591167 0  1.437500189615375 0.8750000579064549 0  1.500000189949599 0.8750000693018957 0  1.562500190366257 0.8750000794626751 0  1.625000190985171 0.875000087903997 0  1.687500191867984 0.8750000942305499 0  1.75000019298944 0.8750000982633014 0  1.812500194208294 0.8750001002122553 0  1.875000195265707 0.8750001008974634 0  1.937500195879712 0.8750001019514924 0  2.000000195990456 0.8750001058119585 0  0.06250013802907876 0.9374999410734659 0  1.380185620307613e-07 0.9374999441768792 0  0.1250001380948736 0.937499937180158 0  0.1875001383113832 0.9374999333457078 0  0.2500001388135495 0.937499930178251 0  0.3125001397239576 0.9374999280497922 0  0.3750001411205033 0.9374999271361176 0  0.4375001430245181 0.9374999274742579 0  0.5000001454033591 0.9374999290192533 0  0.5625001481811925 0.9374999316909441 0  0.6250001512532662 0.9374999354072848 0  0.6875001545006673 0.9374999401039724 0  0.7
[...]
<PointData  Scalars="p"> 
<DataArray  type="Float64"  Name="p"  format="ascii">0.0000000000000000e+00  -7.7342055359237247e-05  -8.1559784500098153e-05  0.0000000000000000e+00  -1.3384221830227855e-04  -1.3657568770833765e-04  -1.7211701635274393e-04  -1.7278366481234941e-04  -1.9565621142248528e-04  -1.9469090448691646e-04  -2.0751596212088616e-04  -2.0545836243986737e-04  -2.1012107495454045e-04  -2.0742344566136906e-04  -2.0534687665509522e-04  -2.0235670350567353e-04  -1.9466723532478202e-04  -1.9164077834812714e-04  -1.7927831414463541e-04  -1.7639214768360459e-04  -1.6015124646718529e-04  -1.5752413759890385e-04  -1.3807395770590262e-04  -1.3578652639710152e-04  -1.1369135885582966e-04  -1.1180000092857878e-04  -8.7543700526296854e-05  -8.6090100254852377e-05  -6.0109956326281305e-05  -5.9121349892876491e-05  -3.1824137822900803e-05  -3.1316818063939299e-05  -3.0866466030265413e-06  -3.0700735840629298e-06  2.5716003336175051e-05  2.5238914396447701e-05  5.4198883703105774e-05  5.3228292977916625e-05  8.1939449578514136e-05  8.0490960094601189e-05  1.0849059079623894e-04  1.0659152947899144e-04  1.3337696433713715e-04  1.3106120631940503e-04  1.5603494646524438e-04  1.5336036859833879e-04  1.7581145945925301e-04  1.7286089679432684e-04  1.9193109108767067e-04  1.8881870134447701e-04  2.0340338088130502e-04  2.0031185944003460e-04  2.0901956045599475e-04  2.0621128877710445e-04  2.0730268685142670e-04  2.0512759710793663e-04  1.9633992775258018e-04  1.9526849669499716e-04  1.7365862425145954e-04  1.7424981619321928e-04  1.3609616822382538e-04  1.3876101711654662e-04  7.9736664344986518e-05  8.3758534506500970e-05  0.0000000000000000e+00  0.0000000000000000e+00  -8.9588268753884541e-05  0.0000000000000000e+00  -1.4331952340956413e-04  -1.7590153313380249e-04  -1.9435928064304265e-04  -2.0252764203052063e-04  -2.0278584993197796e-04  -1.9676911834516650e-04  -1.8569535698129076e-04  -1.7052726521839313e-04  -1.5205302405809100e-04  -1.3093019680748342e-04  -1.0771515700861324e-04  -8.2888806003857566e-05  -5.6880440323680252e-05  -3.0084439998267061e-05  -2.8721196922861433e-06  2.4395834276015062e-05  5.1356209438532246e-05  7.7629090363294197e-05  1.0281041579599816e-04  1.2646283515997981e-04  1.4809530198237988e-04  1.6714440620576692e-04  1.8294985607793224e-04  1.9471582348853982e-04  2.0146946364705900e-04  2.0198424834599193e-04  1.9460859131208163e-04  1.7691816100654312e-04  1.4493217301524028e-04  9.1196623266960489e-05  0.0000000000000000e+00  -9.8000968847105458e-05  0.0000000000000000e+00  -1.5173043540074152e-04  -1.8115231095384204e-04  -1.9594531603223678e-04  -2.0100284064079871e-04  -1.9899729144359112e-04  -1.9154485423220367e-04  -1.7973808623561531e-04  -1.6439209453938288e-04  -1.4616026662522363e-04  -1.2559067897320266e-04  -1.0315583918054993e-04  -7.9273180393843226e-05  -5.4322004121956682e-05  -2.8655892730310302e-05  -2.6119673523742313e-06  2.3480038635310275e-05  4.9288289342536441e-05  7.4469702956725579e-05  9.8662840783903395e-05  1.2148007076736663e-04  1.4249492294260226e-04  1.6122717068079250e-04  1.7712242691218582e-04  1.8951951484618128e-04  1.9759555971706234e-04  2.0025217862543722e-04  1.9586317708509469e-04  1.8172197360452451e-04  1.5282100034543647e-04  9.9160221571200101e-05  0.0000000000000000e+00  -1.0607099281919120e-04  0.0000000000000000e+00  -1.6068595411686707e-04  -1.8777849282126417e-04  -1.9931605479671973e-04  -2.0131208294878568e-04  -1.9688001172824308e-04  -1.8773474781340888e-04  -1.7491613634682313e-04  -1.5913178037073244e-04  -1.4091901531841991e-04  -1.2072128778059324e-04  -9.8923828569072729e-05  -7.5873344678435557e-05  -5.1891409343900568e-05  -2.7283192086468933e-05  -2.3436294320667211e-06  2.2636774454041934e-05  4.7365933094141963e-05  7.1544384181567450e-05  9.4860544341701322e-05  1.1698513655841187e-04  1.3756306916005672e-04  1.5620121521749627e-04  1.7244906643203620e-04  1.8576252915165339e-04  1.9542915881952139e-04  2.0040766245835479e-04  1.9898019768853489e-04  1.8801172183024705e-04  1.6140321665266427e-04  1.0693104019050758e-04  0.0000000000000000e+00  -1.1370243381462400e-04  0.0000000000000000e+00  -1.6969473435205987e-04  -1.9515585528097318e-04  -2.0397171254022019e-04  -2.0318802091015493e-04  -1.9639901693659819e-04  -1.8548808775020054e-04  -1.7150354511584647e-04  -1.5508950795133414e-04  -1.3669517735224657e-04  -1.1667448164826259e-04  -9.5331666263012046e-05  -7.2943641037396230e-05  -4.9772377103415915e-05  -2.6071422090068699e-05  -2.0893738701846385e-06  2.1927100311777075e-05  4.5730039617321879e-05  6.9067292878780955e-05  9.1679896647267259e-05  1.1329917526293425e-04  1.3364060323454492e-04  1.5239255037142996e-04  1.6919473821725122e-04  1.8359298267055644e-04  1.9494121518752033e-04  2.0219368350451737e-04  2.0347004726313641e-04  1.9516444473009428e-04  1.7016523017261687e-04  1.1436862847958825e-04  0.0000000000000000e+00  -1.2089656162020231e-04  0.0000000000000000e+00  -1.7849425335727417e-04  -2.0281353872181283e-04  -2.0938315466346655e-04  -2.0615895625861411e-04  -1.9719481594022842e-04  -1.8456728736144872e-04  -1.6937022878646396e-04  -1.5221843864730917e-04  -1.3349897633392185e-04  -1.1349387852658478e-04  -9.2437069064665238e-05  -7.0541239911566891e-05  -4.8011178516768315e-05  -2.5049170895987598e-05  -1.8567018297727307e-06  2.1364678754206104e-05  4.4412405613024587e-05  6.7082010115731717e-05  8.9166737010338927e-05  1.1045597613216978e-04  1.3073049103234094e-04  1.4974992522723092e-04  1.6722697211909470e-04  1.8277143371614986e-04  1.9576907074653278e-04  2.0513146100918723e-04  2.0878914386572505e-04  2.0268358679006199e-04  1.7880612676152507e-04  1.2143536422947802e-04  0.0000000000000000e+00  -1.2762094545029019e-04  0.0000000000000000e+00  -1.8687497890005348e-04  -2.1036765895404878e-04  -2.1507002675618948e-04  -2.0973148711397183e-04  -1.9881871565061404e-04  -1.8459726861293199e-04  -1.6822210685077762e-04  -1.5029977095053256e-04  -1.3117504997363092e-04  -1.1107397754735280e-04  -9.0171658705194801e-05  -6.8624404544319754e-05  -4.6584734669278585e-05  -2.4206746959958887e-05  -1.6466768449155885e-06  2.0937723031027299e-05  4.3387813225842044e-05  6.5544911883892989e-05  8.7251070822880121e-05  1.0834897199015408e-04  1.2867671222261041e-04  1.4805384288972678e-04  1.6625025736569313e-04  1.8291937562303471e-04  1.9745688921653847e-04  2.0871520360497148e-04  2.1443811992868808e-04  2.1015871524754381e-04  1.8708422161398041e-04  1.2807063699469721e-04  0.0000000000000000e+00  -1.3378556553689515e-04  0.0000000000000000e+00  -1.9461584240363050e-04  -2.1747136810759050e-04  -2.2060255718293374e-04  -2.1344647013432099e-04  -2.0082715819040356e-04  -1.8517924167206972e-04  -1.6771920345879846e-04  -1.4905557128197939e-04  -1.2950398468552395e-04  -1.0924710112214708e-04  -8.8411942550500842e-05  -6.7106750632389258e-05  -4.5438151327066655e-05  -2.3516832990450708e-05  -1.4576103027283074e-06  2.0622186287550391e-05  4.2604504898517988e-05  6.4372407226524772e-05  8.5812023286738014e-05  1.0681256633628397e-04  1.2726129175885575e-04  1.4702674984726994e-04  1.6592309478512203e-04  1.8363390623925602e-04  1.9955367355154556e-04  2.1247393298365076e-04  2.1997061080152261e-04  2.1722188557526530e-04  1.9475482265797299e-04  1.3416466255076540e-04  0.0000000000000000e+00  -1.3924805412160538e-04  0.0000000000000000e+00  -2.0146706251344084e-04  -2.2378942205684058e-04  -2.2558920455943764e-04  -2.1688981563499022e-04  -2.0281426242856355e-04  -1.8593797044658177e-04  -1.6753051705705856e-04  -1.4820480412131086e-04  -1.2825508593319865e-04  -1.0783015614877055e-04  -8.7018120884159439e-05  -6.5887380349517399e-05  -4.4505588195639359e-05  -2.2945944160869030e-05  -1.2870141160870054e-06  2.0389482817300833e-05  4.2001196774582407e-05  6.3467786767727825e-05  8.4713255525700263e-05  1.0566653436519752e-04  1.2625529324361733e-04  1.4638795020903824e-04  1.6591312003937580e-04  1.8453608143681908e-04  2.0164710200679586e-04  2.1598428195804988e-04  2.2498246485375589e-04  2.2352252640929292e-04  2.0155154873327823e-04  1.3956150673006683e-04  0.0000000000000000e+00  -1.4382767787744126e-04  0.0000000000000000e+00  -2.0715373475250234e-04  -2.2899141952377705e-04  -2.2966907543521485e-04  -2.1969223625117521e-04  -2.0442133932193341e-04  -1.8654050086809110e-04  -1.6735854289764908e-04  -1.4749061714051928e-04  -1.2721365354440806e-04  -1.0664953456053148e-04  -8.5855398057087289e-05  -6.4867543015454150e-05  -4.3721876335112519e-05  -2.2460679959665990e-05  -1.1323592707062574e-06  2.0211141412603541e-05  4.1517355063859366e-05  6.2736343391624303e-05  8.3823473334090700e-05  1.0473977845824966e-04  1.2544573776755629e-04  1.4588099778360908e-04  1.6592162118218937e-04  1.8529002610622236e-04  2.0337354410640402e-04  2.1886980546443856e-04  2.2910373160396792e-04  2.2871920591671898e-04  2.0718796360109861e-04  1.4407112030237953e-04  0.0000000000000000e+00  -1.4732134393869611e-04  0.0000000000000000e+00  -2.1138831954536805e-04  -2.3275608568465908e-04  -2.3251175020794969e-04  -2.2152881204451645e-04  -2.0534023546363555e-04  -1.8670341936371997e-04  -1.6695037691091558e-04  -1.4669361101989623e-04  -1.2619478630990886e-04  -1.0555431032433894e-04  -8.4805401600678303e-05  -6.3959741367913730e-05  -4.3028835811582314e-05  -2.2031047390190225e-05  -9.9129803105532872e-07  2.0061759860808586e-05  4.1099033487699207e-05  6.2094329146637455e-05  8.3027236850986838e-05  1.0388363971282208e-04  1.2464879902842276e-04  1.4528672729581684e-04  1.6569454086747909e-04  1.8560977986149934e-04  2.0442082969126689e-04  2.2080020463705391e-04  2.3199720124251032e-04  2.3248307789374434e-04  2.1136869347596846e-04  1.4748440394987442e-04  0.0000000000000000e+00  -1.4951952391169333e-04  0.0000000000000000e+00  -2.1388629788554765e-04  -2.3478161218375574e-04  -2.3382202268200312e-04  -2.2212167402258304e-04  -2.0531532613642559e-04  -1.8619651242452403e-04  -1.6610258835606748e-04  -1.4563796311738088e-04  -1.2504995995489212e-04  -1.0442262075745771e-04  -8.3771900625268924e-05  -6.3092353917237163e-05  -4.2378551404257947e-05  -2.1632220630872952e-05  -8.6181385857227328e-07  1.9920431268848184e-05  4.0701926663174406e-05  6.1473158450337146e-05  8.2230684635902323e-05  1.0297756085737550e-04  1.2371650297065144e-04  1.4442847462546167e-04  1.6502697034138147e-04  1.8526239167133705e-04  2.0452991956798470e-04  2.2149336220462392e-04  2.3336304063194239e-04  2.3450739602857174e-04  2.1380464686222492e-04  1.4958848775799120e-04  0.0000000000000000e+00  -1.5022108663994451e-04  0.0000000000000000e+00  -2.1438277775395366e-04  -2.3479828083911985e-04  -2.3334831377650600e-04  -2.2124443415168785e-04  -2.0414639954981863e-04  -1.8484432724260149e-04  -1.6466309824618618e-04  -1.4419308405376959e-04  -1.2366907969526563e-04  -1.0316363315141784e-04  -8.2682684962189621e-05  -6.2211185295247493e-05  -4.1734505343698538e-05  -2.1245139761089025e-05  -7.4225859457692601e-07  1.9771302862316376e-05  4.0292422019183041e-05  6.0821080377462924e-05  8.1363294323223915e-05  1.0193165670950977e-04  1.2253845649905405e-04  1.4317479286372461e-04  1.6376459889283319e-04  1.8407003732176733e-04  2.0349736795716812e-04  2.2071969024414816e-04  2.3294635859386111e-04  2.3451947344090682e-04  2.1422848087290086e-04  1.5018079567383880e-04  0.0000000000000000e+00  -1.4924606659315375e-04  0.0000000000000000e+00  -2.1264747254428519e-04  -2.3258126853287228e-04  -2.3089160151542183e-04  -2.1872761291928566e-04  -2.0169090063911212e-04  -1.8252680786898370e-04  -1.6253002596334500e-04  -1.4227251160216551e-04  -1.2197868087546894e-04  -1.0171615449437858e-04  -8.1488173184892130e-05  -6.1278383438813366e-05  -4.1070695260130106e-05  -2.0855904955426251e-05  -6.3099848949574562e-07  1.9603645334450190e-05  3.9847440079786590e-05  6.0102692564330729e-05  8.0377406476483623e-05  1.0068574144983714e-04  1.2104163035174039e-04  1.4143833437773261e-04  1.6180437492681945e-04  1.8191025814729626e-04  2.0117812150140046e-04  2.1830670718895679e-04  2.3054537430104296e-04  2.3229224552928065e-04  2.1240848781099421e-04  1.4908103436405231e-04  0.0000000000000000e+00  -1.4644514389316083e-04  0.0000000000000000e+00  -2.0849620040608210e-04  -2.2796082336645041e-04  -2.2631239333322569e-04  -2.1446228728667655e-04  -1.9786427800864593e-04  -1.7917689245142130e-04  -1.5964794166553592e-04  -1.3982835339789446e-04  -1.1993677359798481e-04  -1.0004304515840119e-04  -8.0156745854355717e-05  -6.0268436942347856e-05  -4.0368755185713467e-05  -2.0454029512717209e-05  -5.2593009433634283e-07  1.9411096233507102e-05  3.9352426648655809e-05  5.9295886879262616e-05  7.9244067665092864e-05  9.9204805710954573e-05  1.1918496914505819e-04  1.3917162525950276e-04  1.5908985708082589e-04  1.7871436724849099e-04  1.9748501465739177e-04  2.1414256397215623e-04  2.2601783339239878e-04  2.2765395621765567e-04  2.0815977074707581e-04  1.4614039194462496e-04  0.0000000000000000e+00  -1.4170422894558841e-04  0.0000000000000000e+00  -2.0179621943769728e-04  -2.2082570870899079e-04  -2.1953110385091140e-04  -2.0839616313990007e-04  -1.9263251761637468e-04  -1.7476965377005127e-04  -1.5599473531276834e-04  -1.3683774924446002e-04  -1.1751851654743881e-04  -9.8118699463655329e-05  -7.8663426367155153e-05  -5.9159458286622688e-05  -3.9611756464101378e-05  -2.0029199402072488e-05  -4.2420698574185611e-07  1.9188899106843177e-05  3.8795719672887273e-05  5.8383413742704112e-05  7.7942370812328306e-05  9.7466129664523169e-05  1.1694581841148260e-04  1.3635240165958679e-04  1.5559849140345478e-04  1.7445567482771328e-04  1.9238127688483013e-04  2.0817183709672960e-04  2.1928114818839874e-04  2.2049128837561935e-04  2.0134899785447926e-04  1.4124553333269666e-04  0.0000000000000000e+00  -1.3494195096506442e-04  0.0000000000000000e+00  -1.9246120720381378e-04  -2.1111453357073568e-04  -2.1051408040676965e-04  -2.0051386936217167e-04  -1.8598663000561177e-04  -1.6929317469472260e-04  -1.5155006402056172e-04  -1.3327097280502678e-04  -1.1468669231904949e-04  -9.5901783544473487e-05  -7.6967563167523978e-05  -5.7915444731503506e-05  -3.8772220429974154e-05  -1.9564985225861602e-05  -3.2193405934527575e-07  1.8928336135869809e-05  3.8157144128598190e-05  5.7336107681251693e-05  7.6437449166502671e-05  9.5433368638348179e-05  1.1429020478359163e-04  1.3295280055359405e-04  1.5130994108727595e-04  1.6912040710594580e-04  1.8585481497251571e-04  2.0037505068134975e-04  2.1029736941935147e-04  2.1073924465695319e-04  1.9188758390540378e-04  1.3431461602196257e-04  0.0000000000000000e+00  -1.2609559949854369e-04  0.0000000000000000e+00  -1.8042818871843194e-04  -1.9878342991066272e-04  -1.9923080924883857e-04  -1.9078408853461472e-04  -1.7788181939257420e-04  -1.6268267635478735e-04  -1.4622909987060124e-04  -1.2902750615396131e-04  -1.1133274962440354e-04  -9.3284505310977411e-05  -7.4970247344715234e-05  -5.6454105778715728e-05  -3.7790063210340312e-05  -1.9027678304911228e-05  -2.1377609602855176e-07  1.8606223913335631e-05  3.7386925181424958e-05  5.6081297843844681e-05  7.4639416954238796e-05  9.3006223825069383e-05  1.1111570004163177e-04  1.2887616509454764e-04  1.4614062352467252e-04  1.6264256108550434e-04  1.7785688537201041e-04  1.9071488036978315e-04  1.9902889838363584e-04  1.9834676912623120e-04  1.7970675030744117e-04  1.2528157325801894e-04  0.0000000000000000e+00  -1.1508535655875133e-04  0.0000000000000000e+00  -1.6559652366576768e-04  -1.8372124487122960e-04  -1.8554636747906511e-04  -1.7903329606571453e-04  -1.6809991306756993e-04  -1.5467939513031561e-04  -1.3974455044392804e-04  -1.2380802477315821e-04  -1.0716254989081211e-04  -8.9994370978990860e-05  -7.2435162422997707e-05  -5.4586536984604279e-05  -3.6532642091331509e-05  -1.8346404325183621e-05  -9.3551076766922979e-08  1.8164064291994652e-05  3.6364523710707463e-05  5.4441997235543298e-05  7.2322992098675703e-05  8.9922471001840852e-05  1.0713661159575763e-04  1.2382932375020934e-04  1.3980659124464382e-04  1.5476289899738973e-04  1.6816498931063948e-04  1.7901000626541194e-04  1.8533042707611329e-04  1.8319162101168679e-04  1.6469593823261142e-04  1.1405951618759645e-04  0.0000000000000000e+00  -1.0173801123381646e-04  0.0000000000000000e+00  -1.4769008408673897e-04  -1.6555450542053642e-04  -1.6897854348491801e-04  -1.6467049096912666e-04  -1.5595934304132882e-04  -1.4454287943349190e-04  -1.3133434129380427e-04  -1.1686587575712039e-04  -1.0147842300935102e-04  -8.5410577204831156e-05  -6.8840412326572379e-05  -5.1906718488717849e-05  -3.4721389974064734e-05  -1.7377695621633754e-05  4.3610302377274207e-08  1.7468081034805886e-05  3.4821227690375049e-05  5.2021890386581815e-05  6.8976093909701113e-05  8.5570461890663042e-05  1.0166362638216042e-04  1.1707246057890876e-04  1.3154990728171290e-04  1.4474177241041169e-04  1.5609411322450761e-04  1.6466134389476575e-04  1.6870820552916478e-04  1.6488751889904402e-04  1.4656684126826351e-04  1.0046535158854098e-04  0.0000000000000000e+00  -8.5624506681833756e-05  0.0000000000000000e+00  -1.2595027128415128e-04  -1.4321355569576815e-04  -1.4817135166926367e-04  -1.4611115399736918e-04  -1.3972899838457731e-04  -1.3048474266359056e-04  -1.1923668653405849e-04  -1.0653733822321811e-04  -9.2771704276970764e-05  -7.8223272948291057e-05  -6.3107116634293319e-05  -4.7589173751476065e-05  -3.1799544896338877e-05  -1.5842493515838078e-05  1.9473214898681160e-07  1.6233483232201584e-05  3.2194859830975568e-05  4.7990925429035235e-05  6.3515946193034667e-05  7.8637633123865210e-05  9.3186340618235723e-05  1.0694087795905920e-04  1.1960853697377752e-04  1.3079034062460018e-04  1.3991153715003232e-04  1.4608132853898714e-04  1.4780236169822453e-04  1.4236167265804342e-04  1.2455960604804790e-04  8.4067749854996990e-05  0.0000000000000000e+00  -6.5689814992477734e-05  0.0000000000000000e+00  -9.8427290148435414e-05  -1.1395987855756826e-04  -1.1976412386230061e-04  -1.1958771541161589e-04  -1.1545595775186447e-04  -1.0856421983665082e-04  -9.9683849443356503e-05  -8.9351145584786487e-05  -7.7958159011645066e-05  -6.5798953137351267e-05  -5.3095883636660417e-05  -4.0017209703256557e-05  -2.6690669061137327e-05  -1.3214811324553424e-05  3.3103302491477004e-07  1.3876953060214850e-05  2.7352694747763078e-05  4.0677696700408956e-05  5.3751278324756804e-05  6.6442353967659327e-05  7.8577765009109978e-05  8.9927850628683371e-05  1.0018828652690314e-04  1.0895258419250523e-04  1.1566259837911773e-04  1.1951631550590806e-04  1.1928411689552476e-04  1.1292727699171350e-04  9.6791372301191424e-05  6.3867607587704517e-05  0.0000000000000000e+00  -3.9344689743462108e-05  0.0000000000000000e+00  -6.0317119843058924e-05  -7.1237036148187819e-05  -7.6023390861606238e-05  -7.6758564256348201e-05  -7.4674884284778848e-05  -7.0569983348808937e-05  -6.4996973258373957e-05  -5.8357623448767950e-05  -5.0951047039895552e-05  -4.3001442869345082e-05  -3.4675962289255965e-05  -2.6098037244247942e-05  -1.7358239838130102e-05  -8.5234699330008461e-06  3.5472901101452493e-07  9.2322969214174617e-06  1.8064748844027937e-05  2.6799258762755786e-05  3.5366581737543858e-05  4.3672672863741671e-05  5.1589091558043940e-05  5.8941683311040438e-05  6.5496940959978620e-05  7.0943108725194444e-05  7.4860367365744173e-05  7.6671408300168061e-05  7.5551970820872798e-05  7.0258139188457733e-05  5.8777828807548318e-05  3.7590276497598273e-05  0.0000000000000000e+00  0.0000000000000000e+00  0.0000000000000000e+00  0.0000000000000000e+00  0.0000000000000000e+00  0.0000000000000000e+00  0.0000000000000000e+00  0.0000000000000000e+00  0.0000000000000000e+00  0.0000000000000000e+00  0.0000000000000000e+00  0.0000000000000000e+00  0.0000000000000000e+00  0.0000000000000000e+00  0.0000000000000000e+00  0.0000000000000000e+00  0.0000000000000000e+00  0.0000000000000000e+00  0.0000000000000000e+00  0.0000000000000000e+00  0.0000000000000000e+00  0.0000000000000000e+00  0.0000000000000000e+00  0.000