<?xml version="1.0"?>
<VTKFile type="UnstructuredGrid"  version="0.1"  >
<UnstructuredGrid>
<Piece  NumberOfPoints="759" NumberOfCells="1408">
<Points>
<DataArray  type="Float64"  NumberOfComponents="3"  format="ascii">0 0.46875 0  0.03125 0.46875 0  0.03125 0.515625 0  0 0.515625 0  0.0625 0.46875 0  0.0625 0.515625 0  0.09375 0.46875 0  0.09375 0.515625 0  0.125 0.46875 0  0.125 0.515625 0  0.15625 0.46875 0  0.15625 0.515625 0  0.1875 0.46875 0  0.1875 0.515625 0  0.21875 0.46875 0  0.21875 0.515625 0  0.25 0.46875 0  0.25 0.515625 0  0.28125 0.46875 0  0.28125 0.515625 0  0.3125 0.46875 0  0.3125 0.515625 0  0.34375 0.46875 0  0.34375 0.515625 0  0.375 0.46875 0  0.375 0.515625 0  0.40625 0.46875 0  0.40625 0.515625 0  0.4375 0.46875 0  0.4375 0.515625 0  0.46875 0.46875 0  0.46875 0.515625 0  0.5 0.46875 0  0.5 0.515625 0  0.53125 0.46875 0  0.53125 0.515625 0  0.5625 0.46875 0  0.5625 0.515625 0  0.59375 0.46875 0  0.59375 0.515625 0  0.625 0.46875 0  0.625 0.515625 0  0.65625 0.46875 0  0.65625 0.515625 0  0.6875 0.46875 0  0.6875 0.515625 0  0.71875 0.46875 0  0.71875 0.515625 0  0.75 0.46875 0  0.75 0.515625 0  0.78125 0.46875 0  0.78125 0.515625 0  0.8125 0.46875 0  0.8125 0.515625 0  0.84375 0.46875 0  0.84375 0.515625 0  0.875 0.46875 0  0.875 0.515625 0  0.90625 0.46875 0  0.90625 0.515625 0  0.9375 0.46875 0  0.9375 0.515625 0  0.96875 0.46875 0  0.96875 0.515625 0  1 0.46875 0  1 0.515625 0  0.03125 0.5625 0  0 0.5625 0  0.0625 0.5625 0  0.09375 0.5625 0  0.125 0.5625 0  0.15625 0.5625 0  0.1875 0.5625 0  0.21875 0.5625 0  0.25 0.5625 0  0.28125 0.5625 0  0.3125 0.5625 0  0.34375 0.5625 0  0.375 0.5625 0  0.40625 0.5625 0  0.4375 0.5625 0  0.46875 0.5625 0  0.5 0.5625 0  0.53125 0.5625 0  0.5625 0.5625 0  0.59375 0.5625 0  0.625 0.5625 0  0.65625 0.5625 0  0.6875 0.5625 0  0.71875 0.5625 0  0.75 0.5625 0  0.78125 0.5625 0  0.8125 0.5625 0  0.84375 0.5625 0  0.875 0.5625 0  0.90625 0.5625 0  0.9375 0.5625 0  0.96875 0.5625 0  1 0.5625 0  0.03125 0.609375 0  0 0.609375 0  0.0625 0.609375 0  0.09375 0.609375 0  0.125 0.609375 0  0.15625 0.609375 0  0.1875 0.609375 0  0.21875 0.609375 0  0.25 0.609375 0  0.28125 0.609375 0  0.3125 0.609375 0  0.34375 0.609375 0  0.375 0.609375 0  0.40625 0.609375 0  0.4375 0.609375 0  0.46875 0.609375 0  0.5 0.609375 0  0.53125 0.609375 0  0.5625 0.609375 0  0.59375 0.609375 0  0.625 0.609375 0  0.65625 0.609375 0  0.6875 0.609375 0  0.71875 0.609375 0  0.75 0.609375 0  0.78125 0.609375 0  0.8125 0.609375 0  0.84375 0.609375 0  0.875 0.609375 0  0.90625 0.609375 0  0.9375 0.609375 0  0.96875 0.609375 0  1 0.609375 0  0.03125 0.65625 0  0 0.65625 0  0.0625 0.65625 0  0.09375 0.65625 0  0.125 0.65625 0  0.15625 0.65625 0  0.1875 0.65625 0  0.21875 0.65625 0  0.25 0.65625 0  0.28125 0.65625 0  0.3125 0.65625 0  0.34375 0.65625 0  0.375 0.65625 0  0.40625 0.65625 0  0.4375 0.65625 0  0.46875 0.65625 0  0.5 0.65625 0  0.53125 0.65625 0  0.5625 0.65625 0  0.59375 0.65625 0  0.625 0.65625 0  0.65625 0.65625 0  0.6875 0.65625 0  0.71875 0.65625 0  0.75 0.65625 0  0.78125 0.65625 0  0.8125 0.65625 0  0.84375 0.65625 0  0.875 0.65625 0  0.90625 0.65625 0  0.9375 0.65625 0  0.96875 0.65625 0  1 0.65625 0  0.03125 0.703125 0  0 0.703125 0  0.0625 0.703125 0  0.09375 0.703125 0  0.125 0.703125 0  0.15625 0.703125 0  0.1875 0.703125 0  0.21875 0.703125 0  0.25 0.703125 0  0.28125 0.703125 0  0.3125 0.703125 0  0.34375 0.703125 0  0.375 0.703125 0  0.40625 0.703125 0  0.4375 0.703125 0  0.46875 0.703125 0  0.5 0.703125 0  0.53125 0.703125 0  0.5625 0.703125 0  0.59375 0.703125 0  0.625 0.703125 0  0.65625 0.703125 0  0.6875 0.703125 0  0.71875 0.703125 0  0.75 0.703125 0  0.78125 0.703125 0  0.8125 0.703125 0  0.84375 0.703125 0  0.875 0.703125 0  0.90625 0.703125 0  0.9375 0.703125 0  0.96875 0.703125 0  1 0.703125 0  0.03125 0.75 0  0 0.75 0  0.0625 0.75 0  0.09375 0.75 0  0.125 0.75 0  0.15625 0.75 0  0.1875 0.75 0  0.21875 0.75 0  0.25 0.75 0  0.28125 0.75 0  0.3125 0.75 0  0.34375 0.75 0  0.375 0.75 0  0.40625 0.75 0  0.4375 0.75 0  0.46875 0.75 0  0.5 0.75 0  0.53125 0.75 0  0.5625 0.75 0  0.59375 0.75 0  0.625 0.75 0  0.65625 0.75 0  0.6875 0.75 0  0.71875 0.75 0  0.75 0.75 0  0.78125 0.75 0  0.8125 0.75 0  0.84375 0.75 0  0.875 0.75 0  0.90625 0.75 0  0.9375 0.75 0  0.96875 0.75 0  1 0.75 0  0.03125 0.796875 0  0 0.796875 0  0.0625 0.796875 0  0.09375 0.796875 0  0.125 0.796875 0  0.15625 0.796875 0  0.1875 0.796875 0  0.21875 0.796875 0  0.25 0.796875 0  0.28125 0.796875 0  0.3125 0.796875 0  0.34375 0.796875 0  0.375 0.796875 0  0.40625 0.796875 0  0.4375 0.796875 0  0.46875 0.796875 0  0.5 0.796875 0  0.53125 0.796875 0  0.5625 0.796875 0  0.59375 0.796875 0  0.625 0.796875 0  0.65625 0.796875 0  0.6875 0.796875 0  0.71875 0.796875 0  0.75 0.796875 0  0.78125 0.796875 0  0.8125 0.796875 0  0.84375 0.796875 0  0.875 0.796875 0  0.90625 0.796875 0  0.9375 0.796875 0  0.96875 0.796875 0  1 0.796875 0  0.03125 0.84375 0  0 0.84375 0  0.0625 0.84375 0  0.09375 0.84375 0  0.125 0.84375 0  0.15625 0.84375 0  0.1875 0.84375 0  0.21875 0.84375 0  0.25 0.84375 0  0.28125 0.84375 0  0.3125 0.84375 0  0.34375 0.84375 0  0.375 0.84375 0  0.40625 0.84375 0  0.4375 0.84375 0  0.46875 0.84375 0  0.5 0.84375 0  0.53125 0.84375 0  0.5625 0.84375 0  0.59375 0.84375 0  0.625 0.84375 0  0.65625 0.84375 0  0.6875 0.84375 0  0.71875 0.84375 0  0.75 0.84375 0  0.78125 0.84375 0  0.8125 0.84375 0  0.84375 0.84375 0  0.875 0.84375 0  0.90625 0.84375 0  0.9375 0.84375 0  0.96875 0.84375 0  1 0.84375 0  0.03125 0.890625 0  0 0.890625 0  0.0625 0.890625 0  0.09375 0.890625 0  0.125 0.890625 0  0.15625 0.890625 0  0.1875 0.890625 0  0.21875 0.890625 0  0.25 0.890625 0  0.28125 0.890625 0  0.3125 0.890625 0  0.34375 0.890625 0  0.375 0.890625 0  0.40625 0.890625 0  0.4375 0.890625 0  0.46875 0.890625 0  0.5 0.890625 0  0.53125 0.890625 0  0.5625 0.890625 0  0.59375 0.890625 0  0.625 0.890625 0  0.65625 0.890625 0  0.6875 0.890625 0  0.71875 0.890625 0  0.75 0.890625 0  0.78125 0.890625 0  0.8125 0.890625 0  0.84375 0.890625 0  0.875 0.890625 0  0.90625 0.890625 0  0.9375 0.890625 0  0.96875 0.890625 0  1 0.890625 0  0.03125 0.9375 0  0 0.9375 0  0.0625 0.9375 0  0.09375 0.9375 0  0.125 0.9375 0  0.15625 0.9375 0  0.1875 0.9375 0  0.21875 0.9375 0  0.25 0.9375 0  0.28125 0.9375 0  0.3125 0.9375 0  0.34375 0.9375 0  0.375 0.9375 0  0.40625 0.9375 0  0.4375 0.9375 0  0.46875 0.9375 0  0.5 0.9375 0  0.53125 0.9375 0  0.5625 0.9375 0  0.59375 0.9375 0  0.625 0.9375 0  0.65625 0.9375 0  0.6875 0.9375 0  0.71875 0.9375 0  0.75 0.9375 0  0.78125 0.9375 0  0.8125 0.9375 0  0.84375 0.9375 0  0.875 0.9375 0  0.90625 0.9375 0  0.9375 0.9375 0  0.96875 0.9375 0  1 0.9375 0  0.03125 0.984375 0  0 0.984375 0  0.0625 0.984375 0  0.09375 0.984375 0  0.125 0.984375 0  0.15625 0.984375 0  0.1875 0.984375 0  0.21875 0.984375 0  0.25 0.984375 0  0.28125 0.984375 0  0.3125 0.984375 0  0.34375 0.984375 0  0.375 0.984375 0  0.40625 0.984375 0  0.4375 0.984375 0  0.46875 0.984375 0  0.5 0.984375 0  0.53125 0.984375 0  0.5625 0.984375 0  0.59375 0.984375 0  0.625 0.984375 0  0.65625 0.984375 0  0.6875 0.984375 0  0.71875 0.984375 0  0.75 0.984375 0  0.78125 0.984375 0  0.8125 0.984375 0  0.84375 0.984375 0  0.875 0.984375 0  0.90625 0.984375 0  0.9375 0.984375 0  0.96875 0.984375 0  1 0.984375 0  0.03125 1.03125 0  0 1.03125 0  0.0625 1.03125 0  0.09375 1.03125 0  0.125 1.03125 0  0.15625 1.03125 0  0.1875 1.03125 0  0.21875 1.03125 0  0.25 1.03125 0  0.28125 1.03125 0  0.3125 1.03125 0  0.34375 1.03125 0  0.375 1.03125 0  0.40625 1.03125 0  0.4375 1.03125 0  0.46875 1.03125 0  0.5 1.03125 0  0.53125 1.03125 0  0.5625 1.03125 0  0.59375 1.03125 0  0.625 1.03125 0  0.65625 1.03125 0  0.6875 1.03125 0  0.71875 1.03125 0  0.75 1.03125 0  0.78125 1.03125 0  0.8125 1.03125 0  0.84375 1.03125 0  0.875 1.03125 0  0.90625 1.03125 0  0.9375 1.03125 0  0.96875 1.03125 0  1 1.03125 0  0.03125 1.078125 0  0 1.078125 0  0.0625 1.078125 0  0.09375 1.078125 0  0.125 1.078125 0  0.15625 1.078125 0  0.1875 1.078125 0  0.21875 1.078125 0  0.25 1.078125 0  0.28125 1.078125 0  0.3125 1.078125 0  0.34375 1.078125 0  0.375 1.078125 0  0.40625 1.078125 0  0.4375 1.078125 0  0.46875 1.078125 0  0.5 1.078125 0  0.53125 1.078125 0  0.5625 1.078125 0  0.59375 1.078125 0  0.625 1.078125 0  0.65625 1.078125 0  0.6875 1.078125 0  0.71875 1.078125 0  0.75 1.078125 0  0.78125 1.078125 0  0.8125 1.078125 0  0.84375 1.078125 0  0.875 1.078125 0  0.90625 1.078125 0  0.9375 1.078125 0  0.96875 1.078125 0  1 1.078125 0  0.03125 1.125 0  0 1.125 0  0.0625 1.125 0  0.09375 1.125 0  0.125 1.125 0  0.15625 1.125 0  0.1875 1.125 0  0.21875 1.125 0  0.25 1.125 0  0.28125 1.125 0  0.3125 1.125 0  0.34375 1.125 0  0.375 1.125 0  0.40625 1.125 0  0.4375 1.125 0  0.46875 1.125 0  0.5 1.125 0  0.53125 1.125 0  0.5625 1.125 0  0.59375 1.125 0  0.625 1.125 0  0.65625 1.125 0  0.6875 1.125 0  0.71875 1.125 0  0.75 1.125 0  0.78125 1.125 0  0.8125 1.125 0  0.84375 1.125 0  0.875 1.125 0  0.90625 1.125 0  0.9375 1.125 0  0.96875 1.125 0  1 1.125 0  0.03125 1.171875 0  0 1.171875 0  0.0625 1.171875 0  0.09375 1.171875 0  0.125 1.171875 0  0.15625 1.171875 0  0.1875 1.171875 0  0.21875 1.171875 0  0.25 1.171875 0  0.28125 1.171875 0  0.3125 1.171875 0  0.34375 1.171875 0  0.375 1.171875 0  0.40625 1.171875 0  0.4375 1.171875 0  0.46875 1.171875 0  0.5 1.171875 0  0.53125 1.171875 0  0.5625 1.171875 0  0.59375 1.171875 0  0.625 1.171875 0  0.65625 1.171875 0  0.6875 1.171875 0  0.71875 1.171875 0  0.75 1.171875 0  0.78125 1.171875 0  0.8125 1.171875 0  0.84375 1.171875 0  0.875 1.171875 0  0.90625 1.171875 0  0.9375 1.171875 0  0.96875 1.171875 0  1 1.171875 0  0.03125 1.21875 0  0 1.21875 0  0.0625 1.21875 0  0.09375 1.21875 0  0.125 1.21875 0  0.15625 1.21875 0  0.1875 1.21875 0  0.21875 1.21875 0  0.25 1.21875 0  0.28125 1.21875 0  0.3125 1.21875 0  0.34375 1.21875 0  0.375 1.21875 0  0.40625 1.21875 0  0.4375 1.21875 0  0.46875 1.21875 0  0.5 1.21875 0  0.53125 1.21875 0  0.5
[...]
<PointData  Scalars="p"> 
<DataArray  type="Float64"  Name="p"  format="ascii">0.0000000000000000e+00  -9.4262657715693601e-03  -9.8744941935348003e-03  0.0000000000000000e+00  -1.6254140436674735e-02  -1.7002831064977186e-02  -2.0956000484225384e-02  -2.1912219246134061e-02  -2.3932002803538920e-02  -2.5027055016787283e-02  -2.5512332445016082e-02  -2.6690427870225467e-02  -2.5966235619441513e-02  -2.7179961203831395e-02  -2.5512152011602184e-02  -2.6720347912715707e-02  -2.4327002689502379e-02  -2.5493773732077809e-02  -2.2554318287000847e-02  -2.3648369212021878e-02  -2.0311001408457711e-02  -2.1305327524959228e-02  -1.7693046735380202e-02  -1.8564612623989639e-02  -1.4780242444232988e-02  -1.5509862744102819e-02  -1.1640132136928456e-02  -1.2212287983738544e-02  -8.3312881092094965e-03  -8.7340948294284074e-03  -4.9061633577383952e-03  -5.1312926580970057e-03  -1.4135262070988270e-03  -1.4562528046339290e-03  2.0993141512559411e-03  2.2400841530060525e-03  5.5844296835710263e-03  5.9060254436634017e-03  8.9911892832574732e-03  9.4870446535982762e-03  1.2264135390668568e-02  1.2923570760430004e-02  1.5340658284577206e-02  1.6148670021189988e-02  1.8148382933393610e-02  1.9085360970486315e-02  2.0602122581108665e-02  2.1643585289299612e-02  2.2600293378790645e-02  2.3716559991379883e-02  2.4020537350422939e-02  2.5176435547290335e-02  2.4714437478066089e-02  2.5868945605472180e-02  2.4500978405133565e-02  2.5606954629905612e-02  2.3158553595471226e-02  2.4162498811343757e-02  2.0415056676286673e-02  2.1257335913139375e-02  1.5935318103874642e-02  1.6551719394623774e-02  9.3041147065728753e-03  9.6320857163584468e-03  0.0000000000000000e+00  0.0000000000000000e+00  -1.0919508364277795e-02  0.0000000000000000e+00  -1.8823150343823553e-02  -2.4290526344554270e-02  -2.7785194985067024e-02  -2.9679401238543620e-02  -3.0272986435138573e-02  -2.9808528784707859e-02  -2.8482992342890031e-02  -2.6457466948470107e-02  -2.3864564409940489e-02  -2.0814867588376671e-02  -1.7401779457811545e-02  -1.3705933955615573e-02  -9.7984959241078102e-03  -5.7443776687665640e-03  -1.6046985662742340e-03  2.5606741945394950e-03  6.6909827905043762e-03  1.0722221302647349e-02  1.4584940944155481e-02  1.8201686516318445e-02  2.1484329270335778e-02  2.4330793943106464e-02  2.6621430975290787e-02  2.8214383852391250e-02  2.8940161989077395e-02  2.8594722534445692e-02  2.6931120227894827e-02  2.3649042723668776e-02  1.8382116814961061e-02  1.0682182925878397e-02  0.0000000000000000e+00  -1.2507055059370095e-02  0.0000000000000000e+00  -2.1572479882079321e-02  -2.7862699963492808e-02  -3.1905652797694431e-02  -3.4121853771323422e-02  -3.4848504225373778e-02  -3.4357514087057013e-02  -3.2870062228792643e-02  -3.0567299485950147e-02  -2.7599531558198713e-02  -2.4092700741032386e-02  -2.0154514639485480e-02  -1.5878531452720366e-02  -1.1348483336158221e-02  -6.6411133138107046e-03  -1.8294863018605871e-03  3.0147755591641307e-03  7.8186356475298847e-03  1.2505487043478300e-02  1.6992353799489716e-02  2.1187449680894629e-02  2.4986945567559288e-02  2.8271759863512450e-02  3.0903290054846891e-02  3.2718679161941579e-02  3.3524461800740334e-02  3.3089047024979223e-02  3.1132655972745910e-02  2.7314933451218989e-02  2.1218482411111895e-02  1.2327647047218874e-02  0.0000000000000000e+00  -1.4624829517812105e-02  0.0000000000000000e+00  -2.5215627079880641e-02  -3.2565239874088166e-02  -3.7295558903013053e-02  -3.9898192065532093e-02  -4.0764585227217216e-02  -4.0209471807058264e-02  -3.8487888439109899e-02  -3.5809234515932820e-02  -3.2346986228866823e-02  -2.8247577559903016e-02  -2.3636110216579114e-02  -1.8622426952293391e-02  -1.3304616259217481e-02  -7.7736382725055644e-03  -2.1157546914378446e-03  3.5836355728456953e-03  9.2378966341483768e-03  1.4755599208297297e-02  2.0038290140763543e-02  2.4976827816957221e-02  2.9448495060576969e-02  3.3312604788687215e-02  3.6406302572300001e-02  3.8538426213427075e-02  3.9482645043947634e-02  3.8967865515721983e-02  3.6666391743823842e-02  3.2177807045614494e-02  2.5008053695470527e-02  1.4540930967391128e-02  0.0000000000000000e+00  -1.7295215859315705e-02  0.0000000000000000e+00  -2.9784499060509916e-02  -3.8429449286684354e-02  -4.3979001646961835e-02  -4.7020948923688341e-02  -4.8020870837101749e-02  -4.7350885645633708e-02  -4.5311887305594482e-02  -4.2149662306457163e-02  -3.8068109542670481e-02  -3.3238309089389718e-02  -2.7807122676015875e-02  -2.1902375090366823e-02  -1.5639151497727703e-02  -9.1229596738597978e-03  -2.4549925833722958e-03  4.2656973353299822e-03  1.0937333043503561e-02  1.7453377104650173e-02  2.3697791748086391e-02  2.9542518373763309e-02  3.4842391656181984e-02  3.9431318745920214e-02  4.3115998321243527e-02  4.5669584861936986e-02  4.6822371428271496e-02  4.6250726608966820e-02  4.3561588014856968e-02  3.8272555416522781e-02  2.9784571251192573e-02  1.7345401272280892e-02  0.0000000000000000e+00  -2.0566341598238270e-02  0.0000000000000000e+00  -3.5355731064305868e-02  -4.5545790115676978e-02  -5.2049077888907939e-02  -5.5578325470755995e-02  -5.6695242176710958e-02  -5.5846896317185639e-02  -5.3392937341291323e-02  -4.9626161274205653e-02  -4.4787847528045259e-02  -3.9079963436095003e-02  -3.2674091170708609e-02  -2.5719574774392209e-02  -1.8348835271044420e-02  -1.0683948272059526e-02  -2.8399299992263598e-03  5.0691155837401585e-03  1.2927637940890553e-02  2.0612387681867596e-02  2.7990077195570815e-02  3.4910957528957114e-02  4.1205367109821409e-02  4.6676626785776526e-02  5.1095169334911553e-02  5.4189219624692538e-02  5.5634326236544650e-02  5.5038733914768004e-02  5.1924498018677712e-02  4.5701951573139291e-02  3.5635325603609033e-02  2.0796115260729213e-02  0.0000000000000000e+00  -2.4505595503845470e-02  0.0000000000000000e+00  -4.2037527266659047e-02  -5.4043312720854657e-02  -6.1640989665541032e-02  -6.5700993791396517e-02  -6.6906866306109342e-02  -6.5800710319712269e-02  -6.2816599996741634e-02  -5.8306100675288679e-02  -5.2556950589893528e-02  -4.5807925802643742e-02  -3.8260105483408698e-02  -3.0086109493158476e-02  -2.1437944114162381e-02  -1.2453211889645188e-02  -3.2618982551491983e-03  6.0092979587357629e-03  1.5229940880209313e-02  2.4262358043214763e-02  3.2953995600984227e-02  4.1133657129134839e-02  4.8603081979528021e-02  5.5131244566311084e-02  6.0444444009368332e-02  6.4216379698155759e-02  6.6053945308895232e-02  6.5479610016294987e-02  6.1907528418417436e-02  5.4611691462953534e-02  4.2682831351751133e-02  2.4969746983944312e-02  0.0000000000000000e+00  -2.9196000581622857e-02  0.0000000000000000e+00  -4.9962007034677770e-02  -6.4077761056134941e-02  -7.2915418929668671e-02  -7.7541417613686978e-02  -7.8791468307006757e-02  -7.7326558322826436e-02  -7.3673841614465205e-02  -6.8257766501711226e-02  -6.1422969744805364e-02  -5.3452291020823876e-02  -4.4580784584190958e-02  -3.5007046599720038e-02  -2.4902948141188371e-02  -1.4421849513980492e-02  -3.7063600423253716e-03  7.1046038780474422e-03  1.7869034554499952e-02  2.8434354153466037e-02  3.8631126213262479e-02  4.8264157458218847e-02  5.7105614907740583e-02  6.4883965636403210e-02  7.1274378655862766e-02  7.5883935011249223e-02  7.8235378771783978e-02  7.7744259968966847e-02  7.3689849391412404e-02  6.5175396016968770e-02  5.1074798422388649e-02  2.9959561290970479e-02  0.0000000000000000e+00  -3.4734864061352268e-02  0.0000000000000000e+00  -5.9281319178329614e-02  -7.5824064091614823e-02  -8.6047044473556600e-02  -9.1258111434875694e-02  -9.2482063106578194e-02  -9.0527304979989814e-02  -8.6037103067893472e-02  -7.9525356972334024e-02  -7.1406346450316099e-02  -6.2014782699850862e-02  -5.1624871756773133e-02  -4.0463011062522265e-02  -2.8721046928319109e-02  -1.6566374910911216e-02  -4.1516556245122802e-03  8.3753318969816953e-03  2.0863821835518798e-02  3.3149631714070669e-02  4.5047129997656497e-02  5.6338621114008308e-02  6.6763261410031582e-02  7.6005739825640753e-02  8.3680290505859040e-02  8.9315417916077375e-02  9.2330388107845870e-02  9.2009450256236941e-02  8.7464064308879694e-02  7.7585666663321839e-02  6.0979106253583028e-02  3.5873573582657518e-02  0.0000000000000000e+00  -4.1233363072926708e-02  0.0000000000000000e+00  -7.0164393740297398e-02  -8.9469191580095822e-02  -1.0121199611633735e-01  -1.0699851350712368e-01  -1.0808682711825709e-01  -1.0546967846270686e-01  -9.9932984940339406e-02  -9.2102157027206394e-02  -8.2473948470537337e-02  -7.1445590302803327e-02  -5.9333606043514217e-02  -4.6394663205692688e-02  -3.2838271132456597e-02  -1.8842930241962305e-02  -4.5670731035822015e-03  9.8385120594271964e-03  2.4218586275149338e-02  3.8403094471558437e-02  5.2193260258829012e-02  6.5350565791523818e-02  7.7581449217027074e-02  8.8520955900845855e-02  9.7715604515084806e-02  1.0459865376853029e-01  1.0846587098612687e-01  1.0843868962605373e-01  1.0342214347633678e-01  9.2044467416045134e-02  7.2578654806503162e-02  4.2832558696205066e-02  0.0000000000000000e+00  -4.8815836864186550e-02  0.0000000000000000e+00  -8.2792782936604692e-02  -1.0520120215068204e-01  -1.1857047051125898e-01  -1.2487343952936046e-01  -1.2565909811897258e-01  -1.2214885401220488e-01  -1.1530709469588625e-01  -1.0589401084595328e-01  -9.4507213361401096e-02  -8.1613601897835231e-02  -6.7578060877180587e-02  -5.2684662759580898e-02  -3.7158834366270953e-02  -2.1182942688077393e-02  -4.9148168982394314e-03  1.1499382238676461e-02  2.7908592223279492e-02  4.4143346340706414e-02  5.9999502739827695e-02  7.5221498906567735e-02  8.9484337430479455e-02  1.0237191272822534e-01  1.1335225762009372e-01  1.2174981671708576e-01  1.2670901048570660e-01  1.2715404478501696e-01  1.2173301144099058e-01  1.0874896446403208e-01  8.6063794437811772e-02  5.0967990934728098e-02  0.0000000000000000e+00  -5.7618685253480677e-02  0.0000000000000000e+00  -9.7352445464814488e-02  -1.2319130549388765e-01  -1.3823637592039326e-01  -1.4491758512550101e-01  -1.4514868446672965e-01  -1.4043807744889328e-01  -1.3197111495705369e-01  -1.2067268626969084e-01  -1.0725781421773890e-01  -9.2272616416321521e-02  -7.6130059688139989e-02  -5.9139541276634178e-02  -4.1533479670961118e-02  -2.3490627243740604e-02  -5.1558881644998434e-03  1.3338715306159651e-02  3.1858811936665059e-02  5.0245549470608289e-02  6.8299880403710031e-02  8.5757906567102582e-02  1.0226781007927227e-01  1.1736245533990509e-01  1.3042545370318442e-01  1.4065439891484857e-01  1.4701554891796906e-01  1.4819002665935413e-01  1.4250902220417538e-01  1.2786909190169102e-01  1.0162165999770099e-01  6.0418863826897970e-02  0.0000000000000000e+00  -6.7786830224126057e-02  0.0000000000000000e+00  -1.1401760179026858e-01  -1.4355927474622057e-01  -1.6022423713541123e-01  -1.6702019967952036e-01  -1.6632419174290022e-01  -1.6000687198872926e-01  -1.4952679084709905e-01  -1.3600589960559795e-01  -1.2029234641202941e-01  -1.0301563837044829e-01  -8.4632461432149544e-02  -6.5468491564120476e-02  -4.5751518809544769e-02  -2.5642152006929521e-02  -5.2597769695122785e-03  1.5295132552954728e-02  3.5916610536827633e-02  5.6474258416767877e-02  7.6785802480687268e-02  9.6593330766170077e-02  1.1552953334748041e-01  1.3308097237721353e-01  1.4854611667750819e-01  1.6098158273293486e-01  1.6914406677226765e-01  1.7142049776477994e-01  1.6574633971699340e-01  1.4950812442705944e-01  1.1941487655591952e-01  7.1325138152868756e-02  0.0000000000000000e+00  -7.9466597756582269e-02  0.0000000000000000e+00  -1.3291964824066180e-01  -1.6630992402304046e-01  -1.8435461842422704e-01  -1.9080853569340978e-01  -1.8864645822043624e-01  -1.8019765560671974e-01  -1.6725371060578981e-01  -1.5116357196872443e-01  -1.3291753199551587e-01  -1.1322149538509785e-01  -9.2563113690717749e-02  -7.1265292415849710e-02  -4.9533476611470686e-02  -2.7492281060564068e-02  -5.2165758297386833e-03  1.7239844841986467e-02  3.9819985026468240e-02  6.2436597737565713e-02  8.4945868038792449e-02  1.0711321080470962e-01  1.2857517558292897e-01  1.4878943862830707e-01  1.6697571732986016e-01  1.8204575816264656e-01  1.9251893790993316e-01  1.9642960051872579e-01  1.9122200757376420e-01  1.7363185728655300e-01  1.3954669878182374e-01  8.3818926929619439e-02  0.0000000000000000e+00  -9.2788582404916595e-02  0.0000000000000000e+00  -1.5408137838836711e-01  -1.9120774521567230e-01  -2.1007922558988826e-01  -2.1544553181531242e-01  -2.1106423703998392e-01  -1.9983947158382170e-01  -1.8395406392876396e-01  -1.6499877255340006e-01  -1.4409417258864471e-01  -1.2199876018144559e-01  -9.9200704387467378e-02  -7.5992676553029909e-02  -5.2530665964789988e-02  -2.8881329228360030e-02  -5.0571409962044955e-03  1.8953744246636556e-02  4.3159328940641381e-02  6.7536412193023726e-02  9.2000013822859744e-02  1.1636680728297914e-01  1.4030546005267056e-01  1.6327550396717988e-01  1.8444678959095800e-01  2.0260003767149534e-01  2.1600829724484488e-01  2.2229978429346553e-01  2.1831150326506074e-01  1.9994097387917811e-01  1.6199330013863109e-01  9.8006593237896358e-02  0.0000000000000000e+00  -1.0782370265909967e-01  0.0000000000000000e+00  -1.7727051504749833e-01  -2.1752023430385531e-01  -2.3614835783079213e-01  -2.3927588544099773e-01  -2.3168588546080848e-01  -2.1697576155496379e-01  -1.9774706303825021e-01  -1.7580546959920854e-01  -1.5235061904219413e-01  -1.2813754186252888e-01  -1.0360545645778216e-01  -7.8976888856784153e-02  -5.4328717981945232e-02  -2.9646590014253207e-02  -4.8644076240591883e-03  2.0107817866599095e-02  4.5356424185441502e-02  7.0938273940452629e-02  9.6849967251186234e-02  1.2298809088390364e-01  1.4909529890547163e-01  1.7468314265481130e-01  1.9893028573980512e-01  2.2054331809121294e-01  2.3758081902435640e-01  2.4724436254284896e-01  2.4564988674868224e-01  2.2761028981278886e-01  1.8645948592535821e-01  1.1392682514725663e-01  0.0000000000000000e+00  -1.2447318371241177e-01  0.0000000000000000e+00  -2.0166625349263070e-01  -2.4348397009918091e-01  -2.5998688973763129e-01  -2.5922798697814725e-01  -2.4728640818175912e-01  -2.2850553402734503e-01  -2.0583585104494087e-01  -1.8118490859932726e-01  -1.5571605305327543e-01  -1.3008637245678756e-01  -1.0461777385232982e-01  -7.9416289108509328e-02  -5.4454128683905124e-02  -2.9622567849880110e-02  -4.7696090360782760e-03  2.0273948741044299e-02  4.5675548981949456e-02  7.1577678494838246e-02  9.8072495855891242e-02  1.2516448488527820e-01  1.5271468266619745e-01  1.8035893720595075e-01  2.0738110916961772e-01  2.3253273500631438e-01  2.5378195340907861e-01  2.6798401203567174e-01  2.7049099258158305e-01  2.5475803525473406e-01  2.1206151501060405e-01  1.3145909915409140e-01  0.0000000000000000e+00  -1.4216744388418487e-01  0.0000000000000000e+00  -2.2504864026595356e-01  -2.6516566782840473e-01  -2.7654001338660555e-01  -2.6987348103942860e-01  -2.5266126101125547e-01  -2.2980560015501372e-01  -2.0432886144522247e-01  -1.7798760767031063e-01  -1.5172400231533942e-01  -1.2597517005807465e-01  -1.0087673122671073e-01  -7.6387276336519663e-02  -5.2364405137309125e-02  -2.8611402574968154e-02  -4.9048595439471323e-03  1.8989006415302320e-02  4.3301172074712353e-02  6.8247974983012466e-02  9.4012247466030624e-02  1.2071607327388008e-01  1.4837500716950935e-01  1.7681823464802221e-01  2.0556010090147042e-01  2.3359229409261009e-01  2.5905873287727127e-01  2.7876837001863103e-01  2.8752139218554046e-01  2.7730078380320078e-01  2.3655628910204732e-01  1.5007602538405188e-01  0.0000000000000000e+00  -1.5892917396471698e-01  0.0000000000000000e+00  -2.4171351707793953e-01  -2.7407186336715106e-01  -2.7634107246747641e-01  -2.6222296130180217e-01  -2.4005839264381840e-01  -2.1457600975459751e-01  -1.8828956628764723e-01  -1.6243117163993123e-01  -1.3751795709419912e-01  -1.1367767995401079e-01  -9.0834366190819568e-02  -6.8809719482932130e-02  -4.7376142238755033e-02  -2.6284484817198316e-02  -5.2779476091659623e-03  1.5901515341293214e-02  3.7511092706748884e-02  5.9802538990962828e-02  8.3016181922926771e-02  1.0736699099282190e-01  1.3301598574191337e-01  1.6001531371887229e-01  1.8820633918573279e-01  2.1703440518203393e-01  2.4521122700516715e-01  2.7012299666666373e-01  2.8682769384816198e-01  2.8648409034506445e-01  2.5431049837896730e-01  1.6809031481912970e-01  0.0000000000000000e+00  -1.6791849112100271e-01  0.0000000000000000e+00  -2.3696403629205626e-01  -2.5271122131603529e-01  -2.4322041937757671e-01  -2.2313120601521638e-01  -1.9946888356920373e-01  -1.7540377568801058e-01  -1.5224719635775169e-01  -1.3043622588908846e-01  -1.1000693337418108e-01  -9.0817792132635536e-02  -7.2655380668906214e-02  -5.5283017507968837e-02  -3.8461208196399824e-02  -2.1954914663502433e-02  -5.5347707346958498e-03  1.1025343000138575e-02  2.7951013329471114e-02  4.5470635184684034e-02  6.3816818422384583e-02  8.3225485298317109e-02  1.0392748566647508e-01  1.2612728279862548e-01  1.4995673526070669e-01  1.7537146253733490e-01  2.0193251105404869e-01  2.2834210614330680e-01  2.5143819762487607e-01  2.6404167703732373e-01  2.5058131541948081e-01  1.7977379484957676e-01  0.0000000000000000e+00  -1.4306360733895157e-01  0.0000000000000000e+00  -1.7503341265684022e-01  -1.7054132481872711e-01  -1.5539697416956527e-01  -1.3803596055286446e-01  -1.2113463003086114e-01  -1.0544728508557481e-01  -9.1076682015514068e-02  -7.7908433720902212e-02  -6.5764038235094663e-02  -5.4454721721636443e-02  -4.3800338423007172e-02  -3.3634314022229529e-02  -2.3802697996242291e-02  -1.4161584803165025e-02  -4.5737247089723534e-03  5.0949302870702600e-03  1.4978952909127577e-02  2.5216703839386109e-02  3.5954134342395076e-02  4.7347683051873410e-02  5.9566441022330670e-02  7.2792873975916966e-02  8.7218590403556034e-02  1.0302812244348869e-01  1.2035448523203593e-01  1.3915781699639676e-01  1.5887312519637581e-01  1.7732172107136143e-01  1.8699799886851093e-01  1.6120688404232439e-01  0.0000000000000000e+00  0.0000000000000000e+00  0.0000000000000000e+00  0.0000000000000000e+00  0.0000000000000000e+00  0.0000000000000000e+00  0.0000000000000000e+00  0.0000000000000000e+00  0.0000000000000000e+00  0.0000000000000000e+00  0.0000000000000000e+00  0.0000000000000000e+00  0.0000000000000000e+00  0.0000000000000000e+00  0.0000000000000000e+00  0.0000000000000000e+00  0.0000000000000000e+00  0.0000000000000000e+00  0.0000000000000000e+00  0.0000000000000000e+00  0.0000000000000000e+00  0.0000000000000000e+00  0.0000000000000000e+00  0.0000000000000000e+00  0.0000000000000000e+00  0.0000000000000000e+00  0.0000000000000000e+00  0.0000000000000000e+00  0.0000000000000000e+00  0.0000000000000000e+00  0.0000000000000000e+00  0.0000000000000000e+00  0.0000000000000000e+00  0.0000000000000000e+00  </DataArray> 
</PointData> 
</Piece>
</UnstructuredGrid>
</VTKFile>