<?xml version="1.0"?>
<VTKFile type="UnstructuredGrid"  version="0.1"  >
<UnstructuredGrid>
<Piece  NumberOfPoints="825" NumberOfCells="1536">
<Points>
<DataArray  type="Float64"  NumberOfComponents="3"  format="ascii">-9.584020678336264e-22 0.5 0  0.06249999789718715 0.5000000559964135 0  0.06249992538412929 0.5625000649636313 0  -7.393474598336616e-08 0.562500006718524 0  0.1249999901784525 0.5000001076143052 0  0.1249999195622185 0.5625001121534883 0  0.187499976555428 0.5000001556023073 0  0.1874999083972553 0.5625001542144012 0  0.24999995738 0.5000002014985392 0  0.249999892030131 0.5625001907715635 0  0.3124999271350706 0.5000002326250778 0  0.3124998697960709 0.5625002177629277 0  0.374999885988928 0.5000002483736821 0  0.3749998408197076 0.5625002326062827 0  0.4374998351096707 0.5000002486981383 0  0.4374998055512853 0.5625002348408095 0  0.4999997753748912 0.5000002342003742 0  0.4999997652956307 0.5625002247059075 0  0.5624997117604182 0.5000002075072557 0  0.5624997221256572 0.5625002043671365 0  0.6249996527065798 0.5000001772690201 0  0.6249996790201285 0.5625001778558358 0  0.6874995994937582 0.5000001451191599 0  0.6874996385003513 0.5625001471929044 0  0.7499995513514662 0.5000001082797797 0  0.7499996017845034 0.5625001131794397 0  0.8124995112802409 0.5000000712405577 0  0.8124995701447777 0.5625000776576177 0  0.8749994799029973 0.500000034865839 0  0.874999544444638 0.562500041255057 0  0.9374994555476426 0.4999999962319032 0  0.9374995249389008 0.562500004294966 0  0.9999994409120414 0.4999999599991876 0  0.9999995121924332 0.562499968127087 0  1.062499435440721 0.4999999248375396 0  1.06249950630084 0.5624999328274946 0  1.124999436898213 0.4999998887331204 0  1.124999506814839 0.5624998990572105 0  1.187499448783182 0.4999998603831132 0  1.187499514039529 0.5624998686858 0  1.249999467550625 0.4999998321806769 0  1.249999527631427 0.562499840995405 0  1.31249949303502 0.499999806220934 0  1.312499546608322 0.5624998168639803 0  1.374999527368987 0.4999997898689829 0  1.374999570993573 0.5624997984146554 0  1.437499566871955 0.4999997763016615 0  1.437499600022353 0.5624997852909794 0  1.499999611342777 0.4999997687877263 0  1.499999632331825 0.5624997790570787 0  1.562499662019224 0.4999997759332163 0  1.562499667638167 0.5624997822184304 0  1.624999714888839 0.4999997911721072 0  1.624999705088642 0.5624997940716848 0  1.687499769655709 0.4999998155073914 0  1.687499743187687 0.5624998144113748 0  1.749999826150743 0.4999998521136165 0  1.749999781024383 0.562499842963615 0  1.812499879452046 0.4999998913709086 0  1.812499816832135 0.5624998769444186 0  1.87499992856489 0.4999999328789253 0  1.874999848055665 0.5624999150490999 0  1.937499971093263 0.4999999734381377 0  1.9374998715739 0.5624999589521629 0  2 0.5 0  1.999999881022941 0.5625000306132768 0  0.06249986772678451 0.6250000761884629 0  -1.325314160057456e-07 0.6250000286801056 0  0.1249998644168652 0.6250001171834334 0  0.1874998568827746 0.6250001530856687 0  0.2499998452751443 0.6250001833610509 0  0.3124998295722173 0.625000205939224 0  0.3749998095481748 0.6250002189110829 0  0.4374997853888835 0.6250002214549913 0  0.4999997577641963 0.6250002137340613 0  0.562499727757239 0.6250001971250092 0  0.624999696958939 0.625000173845362 0  0.687499667085094 0.625000145768714 0  0.7499996394285204 0.6250001142494793 0  0.8124996150270453 0.6250000805301132 0  0.8749995947094704 0.6250000455362913 0  0.9374995789625906 0.6250000100181654 0  0.9999995681393182 0.6249999747712391 0  1.062499562407838 0.6249999404385167 0  1.124999561672135 0.6249999077825328 0  1.187499565901397 0.6249998776497063 0  1.249999574865417 0.6249998505355375 0  1.312499588011853 0.6249998271809287 0  1.374999604933493 0.624999808610722 0  1.437499625030454 0.6249997955555199 0  1.499999647453752 0.6249997890345658 0  1.562499671623981 0.6249997901089729 0  1.624999696870499 0.6249997989859999 0  1.687499722209152 0.624999815433153 0  1.749999746616427 0.6249998388493574 0  1.812499768615471 0.6249998681166201 0  1.874999786041754 0.6249999028793317 0  1.937499796340632 0.6249999455517085 0  1.999999799182833 0.6250000014980781 0  0.06249982523698862 0.6875000892375428 0  -1.749854371652394e-07 0.6875000534729413 0  0.1249998235230396 0.6875001226134739 0  0.1874998189861631 0.6875001522653198 0  0.2499998114872752 0.6875001770610132 0  0.3124998010467977 0.6875001954857313 0  0.374999787651924 0.6875002061409694 0  0.4374997714092726 0.6875002082428445 0  0.4999997526559269 0.6875002017977048 0  0.5624997320060778 0.6875001876254884 0  0.6249997103832645 0.6875001670990917 0  0.6874996888727684 0.6875001416648985 0  0.7499996684827779 0.687500112605529 0  0.8124996500752094 0.6875000810446243 0  0.874999634344192 0.6875000479385076 0  0.9374996217822211 0.6875000141198361 0  0.9999996127169072 0.6874999803633104 0  1.062499607317019 0.6874999474004035 0  1.124999605600029 0.6874999159694737 0  1.187499607496803 0.687499886794945 0  1.249999612801071 0.6874998605424175 0  1.312499621151052 0.6874998379307489 0  1.374999632131824 0.6874998197477942 0  1.437499645239429 0.6874998067541436 0  1.499999659892397 0.6874997997117266 0  1.562499675550088 0.6874997992444865 0  1.624999691634466 0.68749980558298 0  1.687499707429579 0.6874998185611572 0  1.749999722075255 0.6874998376820568 0  1.812499734465393 0.6874998622713379 0  1.874999743304169 0.6874998919419844 0  1.937499747755011 0.6874999267666434 0  1.999999748842061 0.6874999649508259 0  0.06249979577995664 0.7500001029317295 0  -2.043550200046225e-07 0.7500000775396061 0  0.1249997949533427 0.7500001285473301 0  0.1874997924621223 0.7500001520238196 0  0.2499997880157543 0.750000171747479 0  0.3124997815321635 0.7500001863096682 0  0.3749997729885329 0.7500001945529977 0  0.4374997624273965 0.7500001957768219 0  0.4999997500164276 0.7500001898648099 0  0.5624997361022991 0.7500001772816084 0  0.6249997212308795 0.7500001589176997 0  0.6874997060862257 0.7500001358475739 0  0.7499996913787854 0.7500001091504648 0  0.8124996777644359 0.7500000798348226 0  0.8749996657973595 0.7500000488159273 0  0.9374996559027871 0.7500000169267681 0  0.9999996483747081 0.749999984942966 0  1.062499643379896 0.7499999536033817 0  1.124999640968089 0.7499999236268452 0  1.187499641087327 0.749999895710402 0  1.249999643578482 0.7499998705298648 0  1.312499648180695 0.7499998487651921 0  1.374999654562755 0.7499998311002666 0  1.437499662337038 0.7499998181893707 0  1.499999671081593 0.7499998106148201 0  1.562499680370983 0.7499998087954632 0  1.624999689755862 0.7499998128772583 0  1.687499698722783 0.7499998226915426 0  1.749999706678036 0.7499998377744348 0  1.812499712966738 0.7499998574303272 0  1.874999717037572 0.7499998807548433 0  1.937499718855251 0.7499999062166031 0  1.999999719264079 0.7499999301666066 0  0.06249977670756882 0.8125001162834253 0  -2.233752831717976e-07 0.8125000994990678 0  0.1249997763805866 0.81250013477921 0  0.1874997751882068 0.8125001524324085 0  0.2499997728323048 0.812500167435811 0  0.3124997691551501 0.8125001783929781 0  0.3749997640741123 0.8125001842500333 0  0.4374997575653657 0.8125001843518588 0  0.4999997496893734 0.8125001784959954 0  0.5624997406257694 0.8125001669197925 0  0.6249997306884367 0.8125001502069317 0  0.6874997202999258 0.8125001291478898 0  0.7499997099348512 0.8125001046147483 0  0.812499700061929 0.8125000774818608 0  0.8749996910995191 0.812500048587799 0  0.9374996833870819 0.8125000187254191 0  0.999999677171959 0.8124999886464882 0  1.062499672606177 0.8124999590703278 0  1.124999669749687 0.8124999306905762 0  1.187499668575936 0.8124999041768296 0  1.249999668975648 0.8124998801763822 0  1.312499670766212 0.81249985931722 0  1.374999673709382 0.8124998421990779 0  1.437499677529199 0.8124998293667033 0  1.499999681930572 0.8124998212657578 0  1.562499686613186 0.8124998181790009 0  1.624999691268632 0.8124998201594551 0  1.687499695571102 0.8124998269857263 0  1.749999699184678 0.8124998381392048 0  1.81249970181248 0.8124998527714248 0  1.874999703318134 0.8124998695716124 0  1.937499703885146 0.8124998863775583 0  1.999999704004724 0.8124998994506812 0  0.06249976570616689 0.8750001286958561 0  -2.343519644798153e-07 0.8750001188336493 0  0.1249997656608484 0.8750001410154014 0  0.1874997652601794 0.8750001534084491 0  0.2499997642621565 0.8750001640910362 0  0.3124997624853055 0.8750001717063455 0  0.3749997598017902 0.8750001752592172 0  0.4374997561332962 0.8750001741152972 0  0.499999751464684 0.8750001680109361 0  0.5624997458646461 0.8750001570335234 0  0.6249997394964492 0.8750001415601683 0  0.6874997326072317 0.8750001221695419 0  0.7499997254979202 0.875000099554414 0  0.8124997184857424 0.8750000744546873 0  0.8749997118699915 0.8750000476157045 0  0.9374997059064129 0.8750000197673612 0  0.9999997007914809 0.8749999916164312 0  1.062499696655032 0.8749999638451295 0  1.124999693558956 0.8749999371110098 0  1.187499691499524 0.8749999120457009 0  1.249999690412297 0.8749998892523524 0  1.312499690181093 0.8749998692999947 0  1.374999690651276 0.8749998527097953 0  1.437499691644867 0.8749998399296255 0  1.499999692975141 0.8749998312960706 0  1.562499694457406 0.8749998269860023 0  1.624999695913765 0.8749998269655179 0  1.687499697177545 0.8749998309436917 0  1.749999698108892 0.8749998383262997 0  1.812499698631867 0.874999848145226 0  1.874999698788294 0.8749998589192449 0  1.937499698760114 0.8749998684138386 0  1.999999698764718 0.8749998733387147 0  0.06249976089273766 0.9375001398662127 0  -2.391567012583105e-07 0.9375001354659871 0  0.1249997610024489 0.9375001470032065 0  0.1874997610651296 0.9375001547984581 0  0.2499997609094047 0.9375001616124897 0  0.3124997603650547 0.9375001661749359 0  0.3749997592852493 0.9375001675485992 0  0.4374997575567726 0.9375001651164708 0  0.4999997551128026 0.937500158574078 0  0.5624997519471694 0.9375001479076813 0  0.624999748122575 0.9375001333505485 0  0.6874997437666278 0.937500115323
[...]
<PointData  Scalars="p"> 
<DataArray  type="Float64"  Name="p"  format="ascii">0.0000000000000000e+00  -1.8363779998993503e-04  -1.9300433873991650e-04  0.0000000000000000e+00  -3.1820035379563291e-04  -3.2355157314963414e-04  -4.1015661500747209e-04  -4.1020686514950421e-04  -4.6768119433172254e-04  -4.6354565305575931e-04  -4.9787162306365502e-04  -4.9088729201202683e-04  -5.0636022926971213e-04  -4.9760653915376118e-04  -4.9732301976846088e-04  -4.8765495186043798e-04  -4.7391740003347100e-04  -4.6398087824839769e-04  -4.3847852417564371e-04  -4.2882261791575527e-04  -3.9292628481295630e-04  -3.8401957816378495e-04  -3.3910116566015494e-04  -3.3128093094708660e-04  -2.7868650427136956e-04  -2.7220702155138281e-04  -2.1329052701458932e-04  -2.0829889981056334e-04  -1.4429361741905887e-04  -1.4091282421500043e-04  -7.3076436506094728e-05  -7.1327220909197595e-05  -7.6888834289892729e-07  -6.8801840867538943e-07  7.1537835500283626e-05  6.9928151017459834e-05  1.4263254758137674e-04  1.3939501458665545e-04  2.1142475016874129e-04  2.0661388535106969e-04  2.7676784593601712e-04  2.7046025133757861e-04  3.3730769263329085e-04  3.2967686613242375e-04  3.9171904563271783e-04  3.8294347266839543e-04  4.3847071842202488e-04  4.2878389114185808e-04  4.7560873463692657e-04  4.6540528414777953e-04  5.0092187411363996e-04  4.9071429103556626e-04  5.1170686837303213e-04  5.0219599503102230e-04  5.0451738836859792e-04  4.9669144886336657e-04  4.7514944646694031e-04  4.7022246377918076e-04  4.1810802769533495e-04  4.1748945305881041e-04  3.2612648022806303e-04  3.3096071690134947e-04  1.9034289908126452e-04  1.9905823464642100e-04  0.0000000000000000e+00  0.0000000000000000e+00  -2.1093280253291726e-04  0.0000000000000000e+00  -3.3774026796804912e-04  -4.1525157337875317e-04  -4.5992933001721509e-04  -4.8066174186761293e-04  -4.8289451661369902e-04  -4.7027656391096371e-04  -4.4541890397788831e-04  -4.1030291383319898e-04  -3.6656496468936322e-04  -3.1569068391647394e-04  -2.5907517085458140e-04  -1.9803227825644759e-04  -1.3378476871670091e-04  -6.7480223607121898e-05  -1.8862230984632270e-07  6.7067577582521158e-05  1.3326347735733460e-04  1.9737241513868343e-04  2.5833983018032830e-04  3.1503860727405354e-04  3.6626482653876759e-04  4.1068727046556490e-04  4.4676628188112594e-04  4.7270581558296387e-04  4.8634464405729425e-04  4.8494760152767295e-04  4.6484523741793706e-04  4.2060680260917104e-04  3.4315740268734107e-04  2.1525185231289408e-04  0.0000000000000000e+00  -2.2976525917591933e-04  0.0000000000000000e+00  -3.5610344499083745e-04  -4.2580865058436753e-04  -4.6148013799844552e-04  -4.7447960424979433e-04  -4.7095059285011832e-04  -4.5453326894429573e-04  -4.2760935752970801e-04  -3.9190306963148523e-04  -3.4880625263769934e-04  -2.9955859703841828e-04  -2.4532096353366842e-04  -1.8719633139159484e-04  -1.2623289134857727e-04  -6.3429134042412158e-05  2.6230283430442906e-07  6.3919359856890647e-05  1.2662765291645769e-04  1.8746859417486484e-04  2.4550301783977799e-04  2.9975039202260963e-04  3.4917209981996812e-04  3.9263828551262559e-04  4.2887660018511175e-04  4.5640542839504958e-04  4.7340107853554778e-04  4.7742246184929814e-04  4.6482913608246023e-04  4.2948584368004771e-04  3.5989262148138095e-04  2.3286502020942562e-04  0.0000000000000000e+00  -2.4801240581565813e-04  0.0000000000000000e+00  -3.7625103080322821e-04  -4.4036554473289032e-04  -4.6819699253242966e-04  -4.7372411490972759e-04  -4.6415353320915681e-04  -4.4340593825635338e-04  -4.1380421946559737e-04  -3.7689179961256699e-04  -3.3384268923255373e-04  -2.8566739519878670e-04  -2.3330237134251214e-04  -1.7764357854241464e-04  -1.1955786787807010e-04  -5.9886294435992801e-05  5.5426234925598250e-07  6.0964781830566997e-05  1.2055375314107793e-04  1.7852825333152664e-04  2.3408539886891213e-04  2.8640123674148556e-04  3.3461685096304995e-04  3.7781185144691463e-04  4.1495891701429484e-04  4.4483991268932059e-04  4.6586722498111188e-04  4.7570352882656734e-04  4.7044930188191775e-04  4.4291376255604724e-04  3.7900933382099909e-04  2.5039965774114247e-04  0.0000000000000000e+00  -2.6560255863371902e-04  0.0000000000000000e+00  -3.9713267363201174e-04  -4.5747146452212377e-04  -4.7885284400504932e-04  -4.7767605512816664e-04  -4.6231251315187645e-04  -4.3712972591410885e-04  -4.0452845322548213e-04  -3.6595936073134671e-04  -3.2243116531732019e-04  -2.7476076984941754e-04  -2.2368601071885035e-04  -1.6991325869286349e-04  -1.1413621386170174e-04  -5.7040389824244644e-05  6.9784634815913283e-07  5.8410658956453861e-05  1.1543549638720069e-04  1.7111192697338791e-04  2.2477827436173978e-04  2.7576727681464456e-04  3.2339401350059318e-04  3.6693049807423405e-04  4.0555452968131083e-04  4.3824156279745504e-04  4.6353094828425416e-04  4.7903552757469394e-04  4.8042396832647456e-04  4.5934616228535975e-04  3.9930523324172468e-04  2.6760592278185697e-04  0.0000000000000000e+00  -2.8265471437484538e-04  0.0000000000000000e+00  -4.1820276678752974e-04  -4.7599905122100558e-04  -4.9209524360672779e-04  -4.8505003400702549e-04  -4.6435739004768739e-04  -4.3488739121806544e-04  -3.9919649664197987e-04  -3.5870980996562416e-04  -3.1432134329842176e-04  -2.6669327077970777e-04  -2.1639511896109377e-04  -1.6396617879583378e-04  -1.0994222538585961e-04  -5.4862064989041639e-05  7.3456671393023655e-07  5.6309935615281660e-05  1.1132981305666730e-04  1.6526435880019711e-04  2.1758967393451740e-04  2.6778586139525063e-04  3.1532685590726140e-04  3.5965064061807176e-04  4.0009692107837087e-04  4.3577247374503150e-04  4.6526201495096617e-04  4.8603793272347813e-04  4.9327385503055983e-04  4.7749910700187962e-04  4.2006057074521122e-04  2.8445915992149893e-04  0.0000000000000000e+00  -2.9916850734385404e-04  0.0000000000000000e+00  -4.3901469571336289e-04  -4.9502312605079874e-04  -5.0669963581548392e-04  -4.9452840722299701e-04  -4.6902647276546262e-04  -4.3555390757527680e-04  -3.9685022143376382e-04  -3.5435322681094721e-04  -3.0887982725388033e-04  -2.6097084912770090e-04  -2.1105598589648579e-04  -1.5953085836167513e-04  -1.0679105484480575e-04  -5.3241754864507687e-05  7.0469945534439241e-07  5.4633734750299370e-05  1.0813282651164396e-04  1.6079575562242916e-04  2.1222618321475479e-04  2.6203854647940895e-04  3.0984560178565830e-04  3.5522429414778877e-04  3.9763992512949957e-04  4.3628482428676769e-04  4.6974099939558458e-04  4.9530526553084951e-04  5.0766333149844934e-04  4.9632110368395279e-04  4.4070211031021995e-04  3.0086376645287324e-04  0.0000000000000000e+00  -3.1495944871874523e-04  0.0000000000000000e+00  -4.5905305153553312e-04  -5.1368858583166670e-04  -5.2156788057736885e-04  -5.0490017607715803e-04  -4.7510899563380177e-04  -4.3799586400619737e-04  -3.9647625369135551e-04  -3.5201506952147924e-04  -3.0537484567139285e-04  -2.5700017633008493e-04  -2.0720536459964032e-04  -1.5626394582852126e-04  -1.0444982861088096e-04  -5.2049666260277820e-05  6.3902442462120223e-07  5.3313853554023633e-05  1.0567367538912732e-04  1.5742441232595040e-04  2.0828481444415089e-04  2.5798684501688424e-04  3.0626309264426279e-04  3.5280504894542961e-04  3.9717589538768646e-04  4.3862625348029959e-04  4.7571465783450640e-04  5.0556362587656845e-04  5.2241713104214757e-04  5.1487281629368996e-04  4.6063289029868183e-04  3.1657454256612513e-04  0.0000000000000000e+00  -3.2966544471319512e-04  0.0000000000000000e+00  -4.7767893996876986e-04  -5.3113088550257696e-04  -5.3567867984523137e-04  -5.1506842540162423e-04  -4.8150782970480263e-04  -4.4117288509974001e-04  -3.9712851522757280e-04  -3.5086410225125645e-04  -3.0309899829288625e-04  -2.5419927357206304e-04  -2.0438348528313687e-04  -1.5382272287148063e-04  -1.0268715369213586e-04  -5.1161142157390765e-05  5.5807851395734479e-07  5.2266854104449374e-05  1.0376215141508223e-04  1.5484866841125795e-04  2.0534488479405209e-04  2.5508438728638242e-04  3.0389988441391959e-04  3.5157832860644269e-04  3.9776140510440819e-04  4.4174320219561087e-04  4.8205792519264595e-04  5.1567673686628366e-04  5.3646585141934407e-04  5.3223780733611915e-04  4.7916345905302444e-04  3.3119071977256835e-04  0.0000000000000000e+00  -3.4277856710412849e-04  0.0000000000000000e+00  -4.9413165774935257e-04  -5.4644770839076936e-04  -5.4805348131339903e-04  -5.2403188948055236e-04  -4.8724378245780189e-04  -4.4416411604923694e-04  -3.9796917288054980e-04  -3.5016111009970093e-04  -3.0141963387762463e-04  -2.5204443313200893e-04  -2.0217470095650400e-04  -1.5189667691889463e-04  -1.0129436090306962e-04  -5.0466483313631556e-05  4.7423820805651446e-07  5.1407771336377458e-05  1.0221439871312431e-04  1.5278227706325181e-04  2.0301415409945987e-04  2.5282775661098655e-04  3.0213959803445165e-04  3.5081416259723572e-04  3.9855914503973114e-04  4.4470646197692184e-04  4.8777473251879682e-04  5.2461941404802301e-04  5.4880279428787683e-04  5.4748223219885765e-04  4.9550180438396869e-04  3.4417900332507525e-04  0.0000000000000000e+00  -3.5368659837123052e-04  0.0000000000000000e+00  -5.0755990620354545e-04  -5.5870661106379631e-04  -5.5774963902962345e-04  -5.3087415789029359e-04  -4.9145158986213771e-04  -4.4617196615024507e-04  -3.9828082370699989e-04  -3.4927613729018354e-04  -2.9979815536443523e-04  -2.5008941987128699e-04  -2.0022425664087057e-04  -1.5022075065107535e-04  -1.0009401403587975e-04  -4.9874172427658696e-05  3.9407619443367494e-07  5.0658267688874060e-05  1.0086603853663086e-04  1.5097302489025595e-04  2.0094953358961950e-04  2.5078113708208694e-04  3.0045062227508526e-04  3.4988642315700688e-04  3.9885041374172710e-04  4.4671216570233406e-04  4.9198899181410692e-04  5.3146104528291511e-04  5.5846827647686116e-04  5.5965537871594906e-04  5.0877735248452906e-04  3.5491109145748684e-04  0.0000000000000000e+00  -3.6171908476562023e-04  0.0000000000000000e+00  -5.1706788973876537e-04  -5.6697590439872588e-04  -5.6387400589886485e-04  -5.3476882623480662e-04  -4.9338010015525808e-04  -4.4652398244026173e-04  -3.9746940693788276e-04  -3.4769357768793139e-04  -2.9779594641906763e-04  -2.4797152668214450e-04  -1.9824379625767733e-04  -1.4857956846082445e-04  -9.8942458885630845e-05  -4.9311345306891299e-05  3.2018060408933913e-07  4.9950617302631484e-05  9.9578481818243073e-05  1.4921015991632477e-04  1.9886669368293422e-04  2.4858406942366906e-04  2.9839537895782217e-04  3.4827725961444965e-04  3.9803754225930686e-04  4.4708116370883311e-04  4.9394166099843049e-04  5.3536591914916671e-04  5.6455964093843683e-04  5.6781537736022287e-04  5.1808401545867149e-04  3.6270736652274616e-04  0.0000000000000000e+00  -3.6619450564622354e-04  0.0000000000000000e+00  -5.2176934881898568e-04  -5.7036722609525982e-04  -5.6561204537821231e-04  -5.3499505290176546e-04  -4.9240080699761537e-04  -4.4467503260297642e-04  -3.9506515858937492e-04  -3.4501089437597614e-04  -2.9507342594862769e-04  -2.4541020742567424e-04  -1.9601021977183521e-04  -1.4680626489296279e-04  -9.7728622138275776e-05  -4.8722445772190013e-05  2.5266541548222215e-07  4.9229475483294318e-05  9.8240699513286184e-05  1.4732659152654791e-04  1.9654145312137159e-04  2.4595418163532012e-04  2.9563031274107426e-04  3.4557981164217398e-04  3.9564377168167873e-04  4.4526208570957445e-04  4.9299672525257956e-04  5.3560687096960058e-04  5.6625640642615001e-04  5.7106879378262013e-04  5.2253066888617204e-04  3.6688222862489686e-04  0.0000000000000000e+00  -3.6646585011006243e-04  0.0000000000000000e+00  -5.2084219783692565e-04  -5.6808366888095132e-04  -5.6226322977227480e-04  -5.3096075255678655e-04  -4.8801951708654791e-04  -4.4021216552140170e-04  -3.9072033325542580e-04  -3.4093492881798253e-04  -2.9138330914374406e-04  -2.4220092414902993e-04  -1.9335937877126358e-04  -1.4477723741929002e-04  -9.6369756104021527e-05  -4.8066258950885403e-05  1.9085169317656382e-07  4.8452209368847193e-05  9.6768425356871977e-05  1.4519680834189591e-04  1.9380744998331398e-04  2.4268351448782923e-04  2.9190451556987006e-04  3.4149506891775316e-04  3.9131614416946386e-04  4.4083478472112958e-04  4.8865396119112325e-04  5.3158563096474909e-04  5.6285338204294111e-04  5.6861555544572714e-04  5.2129344833059990e-04  3.6678829522425303e-04  0.0000000000000000e+00  -3.6196090669136954e-04  0.0000000000000000e+00  -5.1357831303968109e-04  -5.5946533048740132e-04  -5.5327551661466131e-04  -5.2222514568293411e-04  -4.7988724882241170e-04  -4.3285550679349102e-04  -3.8420452873425080e-04  -3.3527058574891940e-04  -2.8655923129862330e-04  -2.3820166855276662e-04  -1.9017450625357065e-04  -1.4240194098140511e-04  -9.4803968177643031e-05  -4.7311254470416948e-05  1.3477480389582127e-07  4.7587326716402993e-05  9.5099538893044181e-05  1.4272983268452522e-04  1.9054664528379229e-04  2.3862867663267828e-04  2.8704842923843514e-04  3.3582486942336607e-04  3.8481882685067862e-04  4.3351387926226993e-04  4.8055772439769656e-04  5.2285532705770971e-04  5.5379394520089066e-04  5.5979371073446179e-04  5.1366533918609876e-04  3.6185656960615594e-04  0.0000000000000000e+00  -3.5221215273936539e-04  0.0000000000000000e+00  -4.9942031453100333e-04  -5.4402056958027074e-04  -5.3826602642882161e-04  -5.0850519759739236e-04  -4.6779465263892023e-04  -4.2244144695799445e-04  -3.7537985315940799e-04  -3.2789339740618776e-04  -2.8048462606698461e-04  -2.3330541001629615e-04  -1.8636053060681827e-04  -1.3960292807882745e-04  -9.2975723872299135e-05  -4.6427731756272236e-05  8.6367097223722448e-08  4.6608831728952670e-05  9.3181996406730658e-05  1.3985092679311094e-04  1.8666633418068537e-04  2.3368318549468034e-04  2.8094569136738641e-04  3.2844222021397338e-04  3.7601023573147056e-04  4.2313011169446078e-04  4.6849187081617294e-04  5.0912655826207962e-04  5.3869041470299198e-04  5.4411017954410787e-04  4.9909185799015961e-04  3.5162519041052312e-04  0.0000000000000000e+00  -3.3686970204009923e-04  0.0000000000000000e+00  -4.7797362622524909e-04  -5.2142859881158657e-04  -5.1700810126362358e-04  -4.8964568035864771e-04  -4.5162503206099181e-04  -4.0886462379664058e-04  -3.6413495383248360e-04  -3.1868094258315270e-04  -2.7302872293273139e-04  -2.2737991122368534e-04  -1.8179480764453406e-04  -1.3627620926125200e-04  -9.0808868254407501e-05  -4.5373248940432078e-05  5.0920667454254869e-08  4.5484829724460884e-05  9.0949635085354517e-05  1.3646570053217990e-04  1.8205177629766555e-04  2.2772195468130776e-04  2.7346948850627052e-04  3.1922658899055623e-04  3.6477755433942283e-04  4.0957322515408119e-04  4.5233296677911651e-04  4.9023605325386281e-04  5.1730890762311725e-04  5.2124016509691006e-04  4.7717900376748155e-04  3.3574906081269617e-04  0.0000000000000000e+00  -3.1568535921338306e-04  0.0000000000000000e+00  -4.4897399655996934e-04  -4.9148484903884036e-04  -4.8934974410732700e-04  -4.6551155762068389e-04  -4.3122592045565189e-04  -3.9193590036495002e-04  -3.5024111786618209e-04  -3.0737331321528953e-04  -2.6391747926364213e-04  -2.2015717490286499e-04  -1.7623399949341683e-04  -1.3222117510636896e-04  -8.8158332406982628e-05  -4.4067925652037337e-05  3.8626331345567288e-08  4.4155600312263454e-05  8.8277440128393416e-05  1.3239252842979642e-04  1.7647809012652055e-04  2.2049261770072090e-04  2.6435925278421634e-04  3.0792709118946916e-04  3.5089574803920311e-04  3.9265281702025154e-04  4.3192153011765988e-04  4.6603771197421655e-04  4.8948506431162840e-04  4.9096814698842788e-04  4.4765675606392777e-04  3.1398004486470180e-04  0.0000000000000000e+00  -2.8844196512549207e-04  0.0000000000000000e+00  -4.1216155888638257e-04  -4.5391961566186773e-04  -4.5497845004253132e-04  -4.3570848512744330e-04  -4.0610346860863627e-04  -3.7106906729514815e-04  -3.3304676015970242e-04  -2.9329143198419331e-04  -2.5248375268787661e-04  -2.1101960034531123e-04  -1.6914311215153558e-04  -1.2701049300054571e-04  -8.4724226865477505e-05  -4.2351322763250841e-05  6.4093778695982191e-08  4.2490077733425506e-05  8.4894547083972041e-05  1.2723323967923559e-04  1.6943793430065600e-04  2.1140429638823876e-04  2.5297095813690324e-04  2.9388308611360284e-04  3.3372575075713224e-04  3.7178658273576902e-04  4.0675891095430365e-04  4.3612474542111158e-04  4.5488862671738857e-04  4.5300655933413521e-04  4.1025201972366937e-04  2.8609421502913580e-04  0.0000000000000000e+00  -2.5478181714564714e-04  0.0000000000000000e+00  -3.6696798119053832e-04  -4.0795315356456581e-04  -4.1286710794618712e-04  -3.9895703504781754e-04  -3.7476695795718857e-04  -3.4463598118761167e-04  -3.1087282144506991e-04  -2.7479034329225987e-04  -2.3719256149639991e-04  -1.9860377832713494e-04  -1.5937779147502960e-04  -1.1975473661620941e-04  -7.9895643807485493e-05  -3.9906510245689945e-05  1.4346277367393355e-07  4.0203533422867713e-05  8.0222824624541671e-05  1.2013100982313992e-04  1.5982021308630045e-04  1.9912551219162508e-04  2.3780001004053113e-04  2.7547666223330300e-04  3.1160915327694183e-04  3.4535909310760648e-04  3.7535686750224059e-04  3.9920893982465583e-04  4.1247567942650929e-04  4.0655675574971777e-04  3.6438025810592360e-04  2.5172214102102750e-04  0.0000000000000000e+00  -2.1382300810780376e-04  0.0000000000000000e+00  -3.1179487406894548e-04  -3.5128194811759366e-04  -3.6005308829669563e-04  -3.5176946662435953e-04  -3.3339712525421919e-04  -3.0869518721788708e-04  -2.7984878589661869e-04  -2.4823072234924119e-04  -2.1475919977471315e-04  -1.8007064076381156e-04  -1.4460826556337244e-04  -1.0867518684559717e-04  -7.2472074798552558e-05  -3.6126003592210445e-05  2.8414816663128315e-07  3.6703723198052622e-05  7.3077332569018906e-05  1.0932410058225059e-04  1.4531280137558946e-04  1.8083663326383766e-04  2.1558214953773058e-04  2.4908925295928012e-04  2.8069640737678181e-04  3.0944763319334305e-04  3.3391024826908805e-04  3.5181158827930146e-04  3.5928943032871596e-04  3.4932243444667102e-04  3.0845513166798133e-04  2.0998975222517380e-04  0.0000000000000000e+00  -1.6326771028527562e-04  0.0000000000000000e+00  -2.4232252542011250e-04  -2.7778053499829131e-04  -2.8899619413537327e-04  -2.8570580740326304e-04  -2.7317949413178602e-04  -2.5451611235197190e-04  -2.3168969412876134e-04  -2.0603902059088231e-04  -1.7850545814701555e-04  -1.4975668543220014e-04  -1.2025885550964444e-04  -9.0326043820941032e-05  -6.0158848752739548e-05  -2.9876644094427113e-05  4.5432545916570178e-07  3.0793716176877007e-05  6.1100198088823889e-05  9.1304037384501343e-05  1.2127985067064287e-04  1.5081760257554204e-04  1.7958936198505179e-04  2.0710838929178867e-04  2.3267826368897175e-04  2.5531736781511834e-04  2.7362646750550058e-04  2.8554684267864981e-04  2.8788303624695949e-04  2.7531742385088226e-04  2.3833319312384580e-04  1.5874776054480266e-04  0.0000000000000000e+00  -9.7192330922772909e-05  0.0000000000000000e+00  -1.4750961987852361e-04  -1.7239501153379848e-04  -1.8202971256537747e-04  -1.8185733337188018e-04  -1.7510500657841752e-04  -1.6384989424937180e-04  -1.4951102055536312e-04  -1.3309292089933855e-04  -1.1531529272572265e-04  -9.6688779332245920e-05  -7.7564930775266301e-05  -5.8173927500413529e-05  -3.8655366305480369e-05  -1.9084118441472686e-05  5.0661524124345788e-07  2.0103821644132960e-05  3.9693306609578548e-05  5.9238307056023848e-05  7.8657442974737582e-05  9.7801423547522827e-05  1.1642598314683977e-04  1.3415981022749318e-04  1.5046595306473804e-04  1.6458896797938782e-04  1.7547353143872657e-04  1.8163262758381108e-04  1.8091275323683497e-04  1.7004598530308244e-04  1.4375294227182551e-04  9.2847640907049099e-05  0.0000000000000000e+00  0.0000000000000000e+00  0.0000000000000000e+00  0.0000000000000000e+00  0.0000000000000000e+00  0.0000000000000000e+00  0.0000000000000000e+00  0.0000000000000000e+00  0.0000000000000000e+00  0.0000000000000000e+00  0.0000000000000000e+00  0.0000000000000000e+00  0.0000000000000000e+00  0.0000000000000000e+00  0.0000000000000000e+00  0.0000000000000000e+00  0.0000000000000000e+00  0.0000000000000000e+00  0.0000000000000000e+00  0.0000000000000000e+00  0.0000000000000000e+00  0.0000000000000000e+00  0.0000000000000000e+00  0.0000000000000000e+00