<?xml version="1.0"?>
<VTKFile type="UnstructuredGrid"  version="0.1"  >
<UnstructuredGrid>
<Piece  NumberOfPoints="759" NumberOfCells="1408">
<Points>
<DataArray  type="Float64"  NumberOfComponents="3"  format="ascii">0 0.46875 0  0.03125 0.46875 0  0.03125 0.515625 0  0 0.515625 0  0.0625 0.46875 0  0.0625 0.515625 0  0.09375 0.46875 0  0.09375 0.515625 0  0.125 0.46875 0  0.125 0.515625 0  0.15625 0.46875 0  0.15625 0.515625 0  0.1875 0.46875 0  0.1875 0.515625 0  0.21875 0.46875 0  0.21875 0.515625 0  0.25 0.46875 0  0.25 0.515625 0  0.28125 0.46875 0  0.28125 0.515625 0  0.3125 0.46875 0  0.3125 0.515625 0  0.34375 0.46875 0  0.34375 0.515625 0  0.375 0.46875 0  0.375 0.515625 0  0.40625 0.46875 0  0.40625 0.515625 0  0.4375 0.46875 0  0.4375 0.515625 0  0.46875 0.46875 0  0.46875 0.515625 0  0.5 0.46875 0  0.5 0.515625 0  0.53125 0.46875 0  0.53125 0.515625 0  0.5625 0.46875 0  0.5625 0.515625 0  0.59375 0.46875 0  0.59375 0.515625 0  0.625 0.46875 0  0.625 0.515625 0  0.65625 0.46875 0  0.65625 0.515625 0  0.6875 0.46875 0  0.6875 0.515625 0  0.71875 0.46875 0  0.71875 0.515625 0  0.75 0.46875 0  0.75 0.515625 0  0.78125 0.46875 0  0.78125 0.515625 0  0.8125 0.46875 0  0.8125 0.515625 0  0.84375 0.46875 0  0.84375 0.515625 0  0.875 0.46875 0  0.875 0.515625 0  0.90625 0.46875 0  0.90625 0.515625 0  0.9375 0.46875 0  0.9375 0.515625 0  0.96875 0.46875 0  0.96875 0.515625 0  1 0.46875 0  1 0.515625 0  0.03125 0.5625 0  0 0.5625 0  0.0625 0.5625 0  0.09375 0.5625 0  0.125 0.5625 0  0.15625 0.5625 0  0.1875 0.5625 0  0.21875 0.5625 0  0.25 0.5625 0  0.28125 0.5625 0  0.3125 0.5625 0  0.34375 0.5625 0  0.375 0.5625 0  0.40625 0.5625 0  0.4375 0.5625 0  0.46875 0.5625 0  0.5 0.5625 0  0.53125 0.5625 0  0.5625 0.5625 0  0.59375 0.5625 0  0.625 0.5625 0  0.65625 0.5625 0  0.6875 0.5625 0  0.71875 0.5625 0  0.75 0.5625 0  0.78125 0.5625 0  0.8125 0.5625 0  0.84375 0.5625 0  0.875 0.5625 0  0.90625 0.5625 0  0.9375 0.5625 0  0.96875 0.5625 0  1 0.5625 0  0.03125 0.609375 0  0 0.609375 0  0.0625 0.609375 0  0.09375 0.609375 0  0.125 0.609375 0  0.15625 0.609375 0  0.1875 0.609375 0  0.21875 0.609375 0  0.25 0.609375 0  0.28125 0.609375 0  0.3125 0.609375 0  0.34375 0.609375 0  0.375 0.609375 0  0.40625 0.609375 0  0.4375 0.609375 0  0.46875 0.609375 0  0.5 0.609375 0  0.53125 0.609375 0  0.5625 0.609375 0  0.59375 0.609375 0  0.625 0.609375 0  0.65625 0.609375 0  0.6875 0.609375 0  0.71875 0.609375 0  0.75 0.609375 0  0.78125 0.609375 0  0.8125 0.609375 0  0.84375 0.609375 0  0.875 0.609375 0  0.90625 0.609375 0  0.9375 0.609375 0  0.96875 0.609375 0  1 0.609375 0  0.03125 0.65625 0  0 0.65625 0  0.0625 0.65625 0  0.09375 0.65625 0  0.125 0.65625 0  0.15625 0.65625 0  0.1875 0.65625 0  0.21875 0.65625 0  0.25 0.65625 0  0.28125 0.65625 0  0.3125 0.65625 0  0.34375 0.65625 0  0.375 0.65625 0  0.40625 0.65625 0  0.4375 0.65625 0  0.46875 0.65625 0  0.5 0.65625 0  0.53125 0.65625 0  0.5625 0.65625 0  0.59375 0.65625 0  0.625 0.65625 0  0.65625 0.65625 0  0.6875 0.65625 0  0.71875 0.65625 0  0.75 0.65625 0  0.78125 0.65625 0  0.8125 0.65625 0  0.84375 0.65625 0  0.875 0.65625 0  0.90625 0.65625 0  0.9375 0.65625 0  0.96875 0.65625 0  1 0.65625 0  0.03125 0.703125 0  0 0.703125 0  0.0625 0.703125 0  0.09375 0.703125 0  0.125 0.703125 0  0.15625 0.703125 0  0.1875 0.703125 0  0.21875 0.703125 0  0.25 0.703125 0  0.28125 0.703125 0  0.3125 0.703125 0  0.34375 0.703125 0  0.375 0.703125 0  0.40625 0.703125 0  0.4375 0.703125 0  0.46875 0.703125 0  0.5 0.703125 0  0.53125 0.703125 0  0.5625 0.703125 0  0.59375 0.703125 0  0.625 0.703125 0  0.65625 0.703125 0  0.6875 0.703125 0  0.71875 0.703125 0  0.75 0.703125 0  0.78125 0.703125 0  0.8125 0.703125 0  0.84375 0.703125 0  0.875 0.703125 0  0.90625 0.703125 0  0.9375 0.703125 0  0.96875 0.703125 0  1 0.703125 0  0.03125 0.75 0  0 0.75 0  0.0625 0.75 0  0.09375 0.75 0  0.125 0.75 0  0.15625 0.75 0  0.1875 0.75 0  0.21875 0.75 0  0.25 0.75 0  0.28125 0.75 0  0.3125 0.75 0  0.34375 0.75 0  0.375 0.75 0  0.40625 0.75 0  0.4375 0.75 0  0.46875 0.75 0  0.5 0.75 0  0.53125 0.75 0  0.5625 0.75 0  0.59375 0.75 0  0.625 0.75 0  0.65625 0.75 0  0.6875 0.75 0  0.71875 0.75 0  0.75 0.75 0  0.78125 0.75 0  0.8125 0.75 0  0.84375 0.75 0  0.875 0.75 0  0.90625 0.75 0  0.9375 0.75 0  0.96875 0.75 0  1 0.75 0  0.03125 0.796875 0  0 0.796875 0  0.0625 0.796875 0  0.09375 0.796875 0  0.125 0.796875 0  0.15625 0.796875 0  0.1875 0.796875 0  0.21875 0.796875 0  0.25 0.796875 0  0.28125 0.796875 0  0.3125 0.796875 0  0.34375 0.796875 0  0.375 0.796875 0  0.40625 0.796875 0  0.4375 0.796875 0  0.46875 0.796875 0  0.5 0.796875 0  0.53125 0.796875 0  0.5625 0.796875 0  0.59375 0.796875 0  0.625 0.796875 0  0.65625 0.796875 0  0.6875 0.796875 0  0.71875 0.796875 0  0.75 0.796875 0  0.78125 0.796875 0  0.8125 0.796875 0  0.84375 0.796875 0  0.875 0.796875 0  0.90625 0.796875 0  0.9375 0.796875 0  0.96875 0.796875 0  1 0.796875 0  0.03125 0.84375 0  0 0.84375 0  0.0625 0.84375 0  0.09375 0.84375 0  0.125 0.84375 0  0.15625 0.84375 0  0.1875 0.84375 0  0.21875 0.84375 0  0.25 0.84375 0  0.28125 0.84375 0  0.3125 0.84375 0  0.34375 0.84375 0  0.375 0.84375 0  0.40625 0.84375 0  0.4375 0.84375 0  0.46875 0.84375 0  0.5 0.84375 0  0.53125 0.84375 0  0.5625 0.84375 0  0.59375 0.84375 0  0.625 0.84375 0  0.65625 0.84375 0  0.6875 0.84375 0  0.71875 0.84375 0  0.75 0.84375 0  0.78125 0.84375 0  0.8125 0.84375 0  0.84375 0.84375 0  0.875 0.84375 0  0.90625 0.84375 0  0.9375 0.84375 0  0.96875 0.84375 0  1 0.84375 0  0.03125 0.890625 0  0 0.890625 0  0.0625 0.890625 0  0.09375 0.890625 0  0.125 0.890625 0  0.15625 0.890625 0  0.1875 0.890625 0  0.21875 0.890625 0  0.25 0.890625 0  0.28125 0.890625 0  0.3125 0.890625 0  0.34375 0.890625 0  0.375 0.890625 0  0.40625 0.890625 0  0.4375 0.890625 0  0.46875 0.890625 0  0.5 0.890625 0  0.53125 0.890625 0  0.5625 0.890625 0  0.59375 0.890625 0  0.625 0.890625 0  0.65625 0.890625 0  0.6875 0.890625 0  0.71875 0.890625 0  0.75 0.890625 0  0.78125 0.890625 0  0.8125 0.890625 0  0.84375 0.890625 0  0.875 0.890625 0  0.90625 0.890625 0  0.9375 0.890625 0  0.96875 0.890625 0  1 0.890625 0  0.03125 0.9375 0  0 0.9375 0  0.0625 0.9375 0  0.09375 0.9375 0  0.125 0.9375 0  0.15625 0.9375 0  0.1875 0.9375 0  0.21875 0.9375 0  0.25 0.9375 0  0.28125 0.9375 0  0.3125 0.9375 0  0.34375 0.9375 0  0.375 0.9375 0  0.40625 0.9375 0  0.4375 0.9375 0  0.46875 0.9375 0  0.5 0.9375 0  0.53125 0.9375 0  0.5625 0.9375 0  0.59375 0.9375 0  0.625 0.9375 0  0.65625 0.9375 0  0.6875 0.9375 0  0.71875 0.9375 0  0.75 0.9375 0  0.78125 0.9375 0  0.8125 0.9375 0  0.84375 0.9375 0  0.875 0.9375 0  0.90625 0.9375 0  0.9375 0.9375 0  0.96875 0.9375 0  1 0.9375 0  0.03125 0.984375 0  0 0.984375 0  0.0625 0.984375 0  0.09375 0.984375 0  0.125 0.984375 0  0.15625 0.984375 0  0.1875 0.984375 0  0.21875 0.984375 0  0.25 0.984375 0  0.28125 0.984375 0  0.3125 0.984375 0  0.34375 0.984375 0  0.375 0.984375 0  0.40625 0.984375 0  0.4375 0.984375 0  0.46875 0.984375 0  0.5 0.984375 0  0.53125 0.984375 0  0.5625 0.984375 0  0.59375 0.984375 0  0.625 0.984375 0  0.65625 0.984375 0  0.6875 0.984375 0  0.71875 0.984375 0  0.75 0.984375 0  0.78125 0.984375 0  0.8125 0.984375 0  0.84375 0.984375 0  0.875 0.984375 0  0.90625 0.984375 0  0.9375 0.984375 0  0.96875 0.984375 0  1 0.984375 0  0.03125 1.03125 0  0 1.03125 0  0.0625 1.03125 0  0.09375 1.03125 0  0.125 1.03125 0  0.15625 1.03125 0  0.1875 1.03125 0  0.21875 1.03125 0  0.25 1.03125 0  0.28125 1.03125 0  0.3125 1.03125 0  0.34375 1.03125 0  0.375 1.03125 0  0.40625 1.03125 0  0.4375 1.03125 0  0.46875 1.03125 0  0.5 1.03125 0  0.53125 1.03125 0  0.5625 1.03125 0  0.59375 1.03125 0  0.625 1.03125 0  0.65625 1.03125 0  0.6875 1.03125 0  0.71875 1.03125 0  0.75 1.03125 0  0.78125 1.03125 0  0.8125 1.03125 0  0.84375 1.03125 0  0.875 1.03125 0  0.90625 1.03125 0  0.9375 1.03125 0  0.96875 1.03125 0  1 1.03125 0  0.03125 1.078125 0  0 1.078125 0  0.0625 1.078125 0  0.09375 1.078125 0  0.125 1.078125 0  0.15625 1.078125 0  0.1875 1.078125 0  0.21875 1.078125 0  0.25 1.078125 0  0.28125 1.078125 0  0.3125 1.078125 0  0.34375 1.078125 0  0.375 1.078125 0  0.40625 1.078125 0  0.4375 1.078125 0  0.46875 1.078125 0  0.5 1.078125 0  0.53125 1.078125 0  0.5625 1.078125 0  0.59375 1.078125 0  0.625 1.078125 0  0.65625 1.078125 0  0.6875 1.078125 0  0.71875 1.078125 0  0.75 1.078125 0  0.78125 1.078125 0  0.8125 1.078125 0  0.84375 1.078125 0  0.875 1.078125 0  0.90625 1.078125 0  0.9375 1.078125 0  0.96875 1.078125 0  1 1.078125 0  0.03125 1.125 0  0 1.125 0  0.0625 1.125 0  0.09375 1.125 0  0.125 1.125 0  0.15625 1.125 0  0.1875 1.125 0  0.21875 1.125 0  0.25 1.125 0  0.28125 1.125 0  0.3125 1.125 0  0.34375 1.125 0  0.375 1.125 0  0.40625 1.125 0  0.4375 1.125 0  0.46875 1.125 0  0.5 1.125 0  0.53125 1.125 0  0.5625 1.125 0  0.59375 1.125 0  0.625 1.125 0  0.65625 1.125 0  0.6875 1.125 0  0.71875 1.125 0  0.75 1.125 0  0.78125 1.125 0  0.8125 1.125 0  0.84375 1.125 0  0.875 1.125 0  0.90625 1.125 0  0.9375 1.125 0  0.96875 1.125 0  1 1.125 0  0.03125 1.171875 0  0 1.171875 0  0.0625 1.171875 0  0.09375 1.171875 0  0.125 1.171875 0  0.15625 1.171875 0  0.1875 1.171875 0  0.21875 1.171875 0  0.25 1.171875 0  0.28125 1.171875 0  0.3125 1.171875 0  0.34375 1.171875 0  0.375 1.171875 0  0.40625 1.171875 0  0.4375 1.171875 0  0.46875 1.171875 0  0.5 1.171875 0  0.53125 1.171875 0  0.5625 1.171875 0  0.59375 1.171875 0  0.625 1.171875 0  0.65625 1.171875 0  0.6875 1.171875 0  0.71875 1.171875 0  0.75 1.171875 0  0.78125 1.171875 0  0.8125 1.171875 0  0.84375 1.171875 0  0.875 1.171875 0  0.90625 1.171875 0  0.9375 1.171875 0  0.96875 1.171875 0  1 1.171875 0  0.03125 1.21875 0  0 1.21875 0  0.0625 1.21875 0  0.09375 1.21875 0  0.125 1.21875 0  0.15625 1.21875 0  0.1875 1.21875 0  0.21875 1.21875 0  0.25 1.21875 0  0.28125 1.21875 0  0.3125 1.21875 0  0.34375 1.21875 0  0.375 1.21875 0  0.40625 1.21875 0  0.4375 1.21875 0  0.46875 1.21875 0  0.5 1.21875 0  0.53125 1.21875 0  0.5
[...]
<PointData  Scalars="p"> 
<DataArray  type="Float64"  Name="p"  format="ascii">0.0000000000000000e+00  -9.4205194853212524e-03  -9.8687736343111496e-03  0.0000000000000000e+00  -1.6244793232938429e-02  -1.6993565627004860e-02  -2.0944614067493806e-02  -2.1900969959478565e-02  -2.3919710554489500e-02  -2.5014946428225517e-02  -2.5499957644768392e-02  -2.6678273243242834e-02  -2.5954378460920240e-02  -2.7168351504766479e-02  -2.5501252653477566e-02  -2.6709715259113118e-02  -2.4317386562919634e-02  -2.5484436626737172e-02  -2.2546228437515109e-02  -2.3640564707525739e-02  -2.0304621454404346e-02  -2.1299234006725037e-02  -1.7688517039641593e-02  -1.8560365843319385e-02  -1.4777671358897213e-02  -1.5507566960156731e-02  -1.1639603669999310e-02  -1.2212023562424608e-02  -8.3328669454568044e-03  -8.7359232210812536e-03  -4.9098978552072348e-03  -5.1352593713757675e-03  -1.4194497726663707e-03  -1.4623887731435449e-03  2.0911830978819958e-03  2.2317626061947372e-03  5.5740891257066135e-03  5.8955180191877050e-03  8.9786565321016074e-03  9.4743699959103714e-03  1.2249451799373796e-02  1.2908771176470485e-02  1.5323896243096368e-02  1.6131818486991415e-02  1.8129655909937786e-02  1.9066571198765953e-02  2.0581599277752011e-02  2.1623025934507271e-02  2.2578217534061206e-02  2.3694474510091771e-02  2.3997255344449141e-02  2.5153169876458246e-02  2.4690436680957363e-02  2.5844986568102257e-02  2.4476940444303531e-02  2.5582983144265024e-02  2.3135428328213015e-02  2.4139463492850937e-02  2.0394165099124489e-02  2.1236554626349196e-02  1.5918496365795853e-02  1.6535019021591536e-02  9.2939181133724798e-03  9.6219932708507001e-03  0.0000000000000000e+00  0.0000000000000000e+00  -1.0913970205347139e-02  0.0000000000000000e+00  -1.8814210372958259e-02  -2.4279715580974352e-02  -2.7773613092100094e-02  -2.9667840413225562e-02  -3.0262019662980030e-02  -2.9798572689793596e-02  -2.8474351923311627e-02  -2.6450367333374560e-02  -2.3859173336537608e-02  -2.0811311211617303e-02  -1.7400153347365555e-02  -1.3706310610199347e-02  -9.8009297133158212e-03  -5.7489078028823823e-03  -1.6113504927398813e-03  2.5518887834011022e-03  6.6800673173142795e-03  1.0709197166211224e-02  1.4569852177661859e-02  1.8184606740663970e-02  2.1465371705857543e-02  2.4310125566643692e-02  2.6599292307562937e-02  2.8191116525083749e-02  2.8916246957373527e-02  2.8570832901263693e-02  2.6908194125333042e-02  2.3628383550161454e-02  1.8365530800060863e-02  1.0672167331507242e-02  0.0000000000000000e+00  -1.2501799049573718e-02  0.0000000000000000e+00  -2.1564028460794051e-02  -2.7852530301260364e-02  -3.1894824599098551e-02  -3.4111128421380518e-02  -3.4838430113705313e-02  -3.4348487577236006e-02  -3.2862371144499976e-02  -3.0561154033057376e-02  -2.7595086234690959e-02  -2.4090069784793725e-02  -2.0153782795659141e-02  -1.5879761370836722e-02  -1.1351720460302743e-02  -6.6463888658102712e-03  -1.8368187215448205e-03  3.0053805270232651e-03  7.8071862279764847e-03  1.2492008187322818e-02  1.6976891733304637e-02  2.1170078748434861e-02  2.4967778121290498e-02  2.8250960279288466e-02  3.0881094353522851e-02  3.2695422341511397e-02  3.3500615718042803e-02  3.3065272721806059e-02  3.1109875842781215e-02  2.7294430468003544e-02  2.1202036450436005e-02  1.2317721917995397e-02  0.0000000000000000e+00  -1.4619928136218988e-02  0.0000000000000000e+00  -2.5207782369056263e-02  -3.2555856333277983e-02  -3.7285643683325147e-02  -3.9888467546754749e-02  -4.0755569949254784e-02  -4.0201538496934988e-02  -3.8481305542201159e-02  -3.5804195799236327e-02  -3.2343631838488138e-02  -2.8246008906511140e-02  -2.3636400414955593e-02  -1.8624628029232235e-02  -1.3308763980488140e-02  -7.7797551237896879e-03  -2.1238513875557682e-03  3.5735599123895671e-03  9.2258556286271692e-03  1.4741621843644468e-02  2.0022425158581793e-02  2.4959150396021691e-02  2.9429116524117949e-02  3.3291686410520258e-02  3.6384074929876276e-02  3.8515216188692088e-02  3.9458913252233767e-02  3.8944258012528730e-02  3.6643811356034249e-02  3.2157511511354209e-02  2.4991790601914414e-02  1.4531123123835078e-02  0.0000000000000000e+00  -1.7290725018948790e-02  0.0000000000000000e+00  -2.9777351170718096e-02  -3.8420960828223695e-02  -4.3970116781553874e-02  -4.7012344207261823e-02  -4.8013030680408943e-02  -4.7344156582439144e-02  -4.5306516941106739e-02  -4.2145827189195302e-02  -3.8065935055595045e-02  -3.3237883596197657e-02  -2.7808507492548075e-02  -2.1905611452088539e-02  -1.5644265265223212e-02  -9.1299643250918484e-03  -2.4638907724317954e-03  4.2549134711663689e-03  1.0924682893158613e-02  1.7438894023582854e-02  2.3681527270477547e-02  2.9524548667007263e-02  3.4822826993850517e-02  3.9410317021968143e-02  4.3093784060433266e-02  4.5646475755629870e-02  4.6798815176366020e-02  4.6227351824356604e-02  4.3539274483547663e-02  3.8252530805925625e-02  2.9768544153186322e-02  1.7335744060179053e-02  0.0000000000000000e+00  -2.0562305308280709e-02  0.0000000000000000e+00  -3.5349350116873630e-02  -4.5538280380018677e-02  -5.2041311967548749e-02  -5.5570928497655832e-02  -5.6688660969416112e-02  -5.5841449217631518e-02  -5.3388850091328773e-02  -4.9623592774305295e-02  -4.4786908314886902e-02  -3.9080728891294950e-02  -3.2676610925106243e-02  -2.5723879338885612e-02  -1.8354940608800628e-02  -1.0691858752364100e-02  -2.8496400478336499e-03  5.0576210713622121e-03  1.2914384410485806e-02  2.0597413179602755e-02  2.7973436323282200e-02  3.4892727658334038e-02  4.1185657535581011e-02  4.6655591887897752e-02  5.1073027131916929e-02  5.4166277737891393e-02  5.5611017956164230e-02  5.5015668084197868e-02  5.1902527904899187e-02  4.5682269706402365e-02  3.5619594288458421e-02  2.0786646005271189e-02  0.0000000000000000e+00  -2.4502047934462132e-02  0.0000000000000000e+00  -4.2031967055385297e-02  -5.4036844998016358e-02  -6.1634408632911739e-02  -6.5694868725396524e-02  -6.6901603722527264e-02  -6.5796598858310185e-02  -6.2813842820999166e-02  -5.8304838820999079e-02  -5.2557279802099816e-02  -4.5809908661861513e-02  -3.8263780125836699e-02  -3.0091495851598832e-02  -2.1445048299590153e-02  -1.2462029121859085e-02  -3.2724145641490261e-03  5.9971051505886301e-03  1.5216103398419925e-02  2.4246918954368275e-02  3.2937012923928227e-02  4.1115209706506319e-02  4.8583278293607854e-02  5.5110235439583440e-02  6.0422440615920003e-02  6.4193678802491300e-02  6.6030964382847404e-02  6.5456935838033359e-02  6.1885984205625050e-02  5.4592429354135434e-02  4.2667459709180400e-02  2.4960505452243476e-02  0.0000000000000000e+00  -2.9192966748378495e-02  0.0000000000000000e+00  -4.9957306264418203e-02  -6.4072379999215417e-02  -7.2910068245581341e-02  -7.7536607456136289e-02  -7.8787562952135806e-02  -7.7323815688513139e-02  -7.3672441868138303e-02  -6.8257832765335785e-02  -6.1424583118671196e-02  -5.3455501501062506e-02  -4.4585619016276251e-02  -3.5013514471768523e-02  -2.4911045749477771e-02  -1.4431562845674133e-02  -3.7176665520563534e-03  7.0917345379780915e-03  1.7854640940421773e-02  2.8418484771804937e-02  3.8613842896670712e-02  4.8245540898155248e-02  5.7085773014227244e-02  6.4863045740147202e-02  7.1252584838171262e-02  7.5861552492747314e-02  7.8212807870712803e-02  7.7722063153523355e-02  7.3668816302888504e-02  6.5156633084545598e-02  5.1059852257409048e-02  2.9950588410226325e-02  0.0000000000000000e+00  -3.4732359678848905e-02  0.0000000000000000e+00  -5.9277501262859522e-02  -7.5819795509712434e-02  -8.6042948947265913e-02  -9.1254637948160092e-02  -9.2479532578767829e-02  -9.0525944122794383e-02  -8.6037068962114036e-02  -7.9526754970437416e-02  -7.1409243246973342e-02  -6.2019215966376287e-02  -5.1630857251433009e-02  -4.0470547946385500e-02  -2.8730121688535507e-02  -1.6576964183570908e-02  -4.1637280541445207e-03  8.3618147690034325e-03  2.0848905726918547e-02  3.3133371050383276e-02  4.5029590933551078e-02  5.6319886643457495e-02  6.6743439245254194e-02  7.5984973968410904e-02  8.3658777829770076e-02  8.9293431521798639e-02  9.2308309951666792e-02  9.1987816361743566e-02  8.7443627319964801e-02  7.7567482067028154e-02  6.0964651167291772e-02  3.5864910169709899e-02  0.0000000000000000e+00  -4.1231393900249186e-02  0.0000000000000000e+00  -7.0161465736669426e-02  -8.9466041098549762e-02  -1.0120915839384423e-01  -1.0699637559531563e-01  -1.0808566635468522e-01  -1.0546969044592351e-01  -9.9934303963909774e-02  -9.2104871037698141e-02  -8.2478110150187384e-02  -7.1451225319365805e-02  -5.9340719325023994e-02  -4.6403243712083625e-02  -3.2848295549576183e-02  -1.8854365726014392e-02  -4.5798792179048862e-03  9.8243822650647631e-03  2.4203186179686163e-02  3.8386484978607943e-02  5.2175512447757331e-02  6.5331765544656806e-02  7.7561704535028905e-02  8.8500407793355843e-02  9.7694442670258175e-02  1.0457713878588630e-01  1.0844436542310298e-01  1.0841770114429669e-01  1.0340238451584020e-01  9.2026937543487577e-02  7.2564754180426641e-02  4.2824244242703979e-02  0.0000000000000000e+00  -4.8814397768360350e-02  0.0000000000000000e+00  -8.2790733993515331e-02  -1.0519915324451749e-01  -1.1856886880084201e-01  -1.2487261075285495e-01  -1.2565927673937283e-01  -1.2215020526388208e-01  -1.1530973079461383e-01  -1.0589800300706430e-01  -9.4512600817568293e-02  -8.1620398802169619e-02  -6.7586261660007835e-02  -5.2694246408160346e-02  -3.7169767818182965e-02  -2.1195183536562884e-02  -4.9283153777220836e-03  1.1484681975182291e-02  2.7892751743595661e-02  4.4126433679424620e-02  5.9981594600534802e-02  7.5202684784965390e-02  8.9464726285747573e-02  1.0235164308547835e-01  1.1333151225956878e-01  1.2172884357009382e-01  1.2668815197354333e-01  1.2713377857023556e-01  1.2171400691260249e-01  1.0873216068004456e-01  8.6050507625773001e-02  5.0960062508881208e-02  0.0000000000000000e+00  -5.7617759145201147e-02  0.0000000000000000e+00  -9.7351245055208285e-02  -1.2319031721839013e-01  -1.3823596135096214e-01  -1.4491801074381716e-01  -1.4515014356897613e-01  -1.4044070632572150e-01  -1.3197500494549699e-01  -1.2067789285163827e-01  -1.0726436402399821e-01  -9.2280512759882471e-02  -7.6139287048372764e-02  -5.9150069030627341e-02  -4.1545265230535117e-02  -2.3503618655640077e-02  -5.1700261893698994e-03  1.3323495768717178e-02  3.1842581169562276e-02  5.0228383339117076e-02  6.8281862057699219e-02  8.5739129998288782e-02  1.0224838609094061e-01  1.1734252075622749e-01  1.3040518494357659e-01  1.4063403143326531e-01  1.4699540458630581e-01  1.4817055192468195e-01  1.4249084099341125e-01  1.2785307872922624e-01  1.0160904084477917e-01  6.0411355174025801e-02  0.0000000000000000e+00  -6.7786386978095137e-02  0.0000000000000000e+00  -1.1401719789304039e-01  -1.4355927937221005e-01  -1.6022493094113646e-01  -1.6702179343808105e-01  -1.6632684031038653e-01  -1.6001068484162956e-01  -1.4953184014406903e-01  -1.3601222648393543e-01  -1.2029996605984786e-01  -1.0302454423552646e-01  -8.4642628853643001e-02  -6.5479880958194570e-02  -4.5764078519819215e-02  -2.5655820805750552e-02  -5.2744861634018824e-03  1.5279457499958762e-02  3.5900049097152067e-02  5.6456894962412359e-02  7.6767727533032598e-02  9.6574643880898065e-02  1.1551034830544792e-01  1.3306142541538168e-01  1.4852637877804548e-01  1.6096187745837892e-01  1.6912469550289855e-01  1.7140187498814424e-01  1.6572904206399777e-01  1.4949295847335120e-01  1.1940297251795032e-01  7.1318079150987687e-02  0.0000000000000000e+00  -7.9466593183309966e-02  0.0000000000000000e+00  -1.3291996556020252e-01  -1.6631082464024344e-01  -1.8435630898072233e-01  -1.9081117629818220e-01  -1.8865016902951950e-01  -1.8020252211504617e-01  -1.6725978801172825e-01  -1.5117088887412292e-01  -1.3292609366964028e-01  -1.1323128675576415e-01  -9.2574102131492822e-02  -7.1277430423771479e-02  -4.9546704323532809e-02  -2.7506528609766951e-02  -5.2317654644971432e-03  1.7223797035492462e-02  3.9803167938838251e-02  6.2419104868220325e-02  8.4927798191915427e-02  1.0709467032212266e-01  1.2855628262901356e-01  1.4877033030553438e-01  1.6695656057146219e-01  1.8202676573021961e-01  1.9250039129478655e-01  1.9641188210696603e-01  1.9120564548094898e-01  1.7361758748310455e-01  1.3953555103311721e-01  8.3812343620803309e-02  0.0000000000000000e+00  -9.2788957352142820e-02  0.0000000000000000e+00  -1.5408231669838740e-01  -1.9120941334273478e-01  -2.1008176524172556e-01  -2.1544905891509128e-01  -2.1106884172540194e-01  -1.9984521885636974e-01  -1.8396099473514388e-01  -1.6500690519178524e-01  -1.4410350436496744e-01  -1.2200926927492198e-01  -9.9212351878499375e-02  -7.6005408559724444e-02  -5.2544415834776474e-02  -2.8896019673071541e-02  -5.0726861212995146e-03  1.8937437148265589e-02  4.3142358040084747e-02  6.7518880410245882e-02  9.1982029034968299e-02  1.1634848381857554e-01  1.4028692203778709e-01  1.6325689117794634e-01  1.8442826674480017e-01  2.0258180840008747e-01  2.1599062436249006e-01  2.2228301858039348e-01  2.1829612380380475e-01  1.9992764408448740e-01  1.6198294546491696e-01  9.8000508884141191e-02  0.0000000000000000e+00  -1.0782438228088041e-01  0.0000000000000000e+00  -1.7727194765112420e-01  -2.1752250738648493e-01  -2.3615155925310791e-01  -2.3928009465377303e-01  -2.3169116804894171e-01  -2.1698216603544077e-01  -1.9775461922319704e-01  -1.7581418810159796e-01  -1.5236049158478718e-01  -1.2814854217070459e-01  -1.0361754157664735e-01  -7.8990000749794453e-02  -5.4342785338548180e-02  -2.9661530114754055e-02  -4.8801281697980732e-03  2.0091417020718670e-02  4.5339449595002128e-02  7.0920837609758480e-02  9.6832186382198787e-02  1.2297008868304328e-01  1.4907720690687692e-01  1.7466510521923440e-01  1.9891246753464065e-01  2.2052591575842420e-01  2.3756407853762043e-01  2.4722860424264967e-01  2.4563554080819308e-01  2.2759794579980275e-01  1.8644996175956594e-01  1.1392126303729164e-01  0.0000000000000000e+00  -1.2447407687016063e-01  0.0000000000000000e+00  -2.0166802562536187e-01  -2.4348664850416807e-01  -2.5999052111239918e-01  -2.5923262289188326e-01  -2.4729209558988943e-01  -2.2851230924507612e-01  -2.0584373612127499e-01  -1.8119390937333660e-01  -1.5572615844609147e-01  -1.3009755456054398e-01  -1.0462998859921080e-01  -7.9429477346640270e-02  -5.4468217509729674e-02  -2.9637472117175462e-02  -4.7852329056858253e-03  2.0257710285212810e-02  4.5658808735261035e-02  7.1560555955650543e-02  9.8055116636309655e-02  1.2514698089637902e-01  1.5269719347858587e-01  1.8034161310379127e-01  2.0736411671359861e-01  2.3251626613135423e-01  2.5376623944579529e-01  2.6796934453218219e-01  2.7047775341973757e-01  2.5474673930407915e-01  2.1205286981534005e-01  1.3145408826942562e-01  0.0000000000000000e+00  -1.4216844270733894e-01  0.0000000000000000e+00  -2.2505056732059131e-01  -2.6516851084609050e-01  -2.7654379139585866e-01  -2.6987822653193705e-01  -2.5266700818874976e-01  -2.2981237730140783e-01  -2.0433668617246276e-01  -1.7799648409482680e-01  -1.5173391961921898e-01  -1.2598610199334692e-01  -1.0088863620765501e-01  -7.6400097973734066e-02  -5.2378073087354766e-02  -2.8625833580305949e-02  -4.9199585909562235e-03  1.8973344878675694e-02  4.3285062962973068e-02  6.8231541527890308e-02  9.3995620472409780e-02  1.2069939086115271e-01  1.4835841529448598e-01  1.7680188888423048e-01  2.0554417005548584e-01  2.3357696655818325e-01  2.5904422696925489e-01  2.7875495001672168e-01  2.8750939239737872e-01  2.7729064355672201e-01  2.3654860252187940e-01  1.5007161116113665e-01  0.0000000000000000e+00  -1.5893015349747008e-01  0.0000000000000000e+00  -2.4171538218574987e-01  -2.7407458317578215e-01  -2.7634465135301167e-01  -2.6222742068730709e-01  -2.4006375902498509e-01  -2.1458230685819751e-01  -1.8829681009622201e-01  -1.6243936729910152e-01  -1.3752709708596275e-01  -1.1368774317243417e-01  -9.0845317584296301e-02  -6.8821510089631402e-02  -4.7388709528557720e-02  -2.6297753255036190e-02  -5.2918293648035949e-03  1.5887119583742511e-02  3.7496292880702733e-02  5.9787454823066084e-02  8.3000942219983082e-02  1.0735173318468531e-01  1.3300085589863322e-01  1.6000046732752332e-01  1.8819194310929097e-01  2.1702064145236344e-01  2.4519829945069524e-01  2.7011114172935435e-01  2.8681719762495533e-01  2.8647531469899323e-01  2.5430391965721660e-01  1.6808657906025729e-01  0.0000000000000000e+00  -1.6791930895618107e-01  0.0000000000000000e+00  -2.3696558657273131e-01  -2.5271347343362871e-01  -2.4322337380648301e-01  -2.2313487893852946e-01  -1.9947329682123413e-01  -1.7540895017464228e-01  -1.5225314776960910e-01  -1.3044296191710031e-01  -1.1001445190376109e-01  -9.0826080125754036e-02  -7.2664413512634182e-02  -5.5292758690788375e-02  -3.8471609245276761e-02  -2.1965915281155456e-02  -5.5462990893509426e-03  1.1013369862335996e-02  2.7938689000451426e-02  4.5458063370712898e-02  6.3804112443722763e-02  8.3212767693643649e-02  1.0391488803412308e-01  1.2611494603412368e-01  1.4994481041290536e-01  1.7536011271740520e-01  2.0192191493699135e-01  2.2833246389449730e-01  2.5142974071258173e-01  2.6403468406103070e-01  2.5057613721442162e-01  1.7977089313637204e-01  0.0000000000000000e+00  -1.4306410326465138e-01  0.0000000000000000e+00  -1.7503435415800922e-01  -1.7054269531340546e-01  -1.5539877613774541e-01  -1.3803820621403609e-01  -1.2113733537576367e-01  -1.0545046596518938e-01  -9.1080351500032977e-02  -7.7912600259685549e-02  -6.5768704361451047e-02  -5.4459883159123743e-02  -4.3805983470485796e-02  -3.3640423147363339e-02  -2.3809243601544270e-02  -1.4168531129542628e-02  -4.5810278498946743e-03  5.0873222843243913e-03  1.4971099874705062e-02  2.5208673273286228e-02  3.5946001189065352e-02  4.7339529511866048e-02  5.9558356458940309e-02  7.2784954979418268e-02  8.7210941135625483e-02  1.0302085544387345e-01  1.2034772290349793e-01  1.3915169411997211e-01  1.5886779307887144e-01  1.7731735410528018e-01  1.8699480485469816e-01  1.6120512056287500e-01  0.0000000000000000e+00  0.0000000000000000e+00  0.0000000000000000e+00  0.0000000000000000e+00  0.0000000000000000e+00  0.0000000000000000e+00  0.0000000000000000e+00  0.0000000000000000e+00  0.0000000000000000e+00  0.0000000000000000e+00  0.0000000000000000e+00  0.0000000000000000e+00  0.0000000000000000e+00  0.0000000000000000e+00  0.0000000000000000e+00  0.0000000000000000e+00  0.0000000000000000e+00  0.0000000000000000e+00  0.0000000000000000e+00  0.0000000000000000e+00  0.0000000000000000e+00  0.0000000000000000e+00  0.0000000000000000e+00  0.0000000000000000e+00  0.0000000000000000e+00  0.0000000000000000e+00  0.0000000000000000e+00  0.0000000000000000e+00  0.0000000000000000e+00  0.0000000000000000e+00  0.0000000000000000e+00  0.0000000000000000e+00  0.0000000000000000e+00  0.0000000000000000e+00  </DataArray> 
</PointData> 
</Piece>
</UnstructuredGrid>
</VTKFile>