<?xml version="1.0"?>
<VTKFile type="UnstructuredGrid"  version="0.1"  >
<UnstructuredGrid>
<Piece  NumberOfPoints="825" NumberOfCells="1536">
<Points>
<DataArray  type="Float64"  NumberOfComponents="3"  format="ascii">-1.382160565417079e-22 0.5 0  0.06249999845337753 0.5000000963768113 0  0.06249986691127057 0.5625001175264193 0  -1.305011723500474e-07 0.5625000111075563 0  0.1249999892054069 0.5000001958280882 0  0.1249998561988166 0.5625002072607314 0  0.1874999689651535 0.5000002941653979 0  0.1874998368285881 0.5625002901409631 0  0.2499999308651063 0.5000003746140759 0  0.2499998071396272 0.5625003633137389 0  0.3124998806457002 0.5000004511632188 0  0.3124997663499791 0.5625004249427296 0  0.3749998130334855 0.5000005064903094 0  0.3749997142502307 0.5625004685499532 0  0.4374997200028209 0.5000005249410945 0  0.4374996498865908 0.5625004857249927 0  0.4999996018187371 0.5000005016815899 0  0.4999995735174916 0.5625004728432869 0  0.562499474198323 0.500000451786586 0  0.56249948890959 0.5625004345056308 0  0.6249993513625883 0.5000003870507466 0  0.6249994023641161 0.5625003778618503 0  0.6874992346861164 0.5000003068734421 0  0.6874993190740435 0.5625003072296496 0  0.7499991318343454 0.5000002205085591 0  0.7499992428961054 0.562500227311105 0  0.8124990454926291 0.5000001298777337 0  0.8124991775646107 0.5625001420113073 0  0.8749989762272008 0.500000034972618 0  0.8749991253053513 0.562500053729086 0  0.9374989301266763 0.499999944192961 0  0.9374990878734043 0.5624999668021887 0  0.9999989090898783 0.4999998611536804 0  0.9999990668888885 0.5624998854954725 0  1.062498911522432 0.4999997901493892 0  1.062499062597214 0.5624998111766999 0  1.124998931357173 0.4999997219002959 0  1.124999073768702 0.5624997423378848 0  1.187498962049699 0.4999996503514439 0  1.187499098512281 0.5624996796533061 0  1.24999902056467 0.4999996050923709 0  1.249999136400669 0.5624996288671777 0  1.312499091825504 0.4999995673083538 0  1.31249918673002 0.5624995900019133 0  1.374999170368207 0.499999534521664 0  1.374999246616507 0.5624995639409613 0  1.437499270831061 0.4999995354644848 0  1.437499314694329 0.5624995566720301 0  1.499999377273928 0.4999995534544121 0  1.499999389470116 0.5624995679711206 0  1.562499482422565 0.4999995838362428 0  1.562499467521878 0.5624995965361536 0  1.62499959975197 0.4999996490164516 0  1.624999546872045 0.5624996440530555 0  1.687499711569486 0.4999997241894221 0  1.687499625012945 0.5624997047950826 0  1.749999807874452 0.4999997970143065 0  1.74999969714891 0.5624997723265898 0  1.812499900234719 0.4999998859524868 0  1.812499760368654 0.5624998449086301 0  1.874999969584241 0.4999999619358092 0  1.874999812050486 0.5624999147179519 0  1.937500002349016 0.4999999999084011 0  1.937499847206051 0.5624999783334003 0  2 0.5 0  1.999999860475013 0.5625000795857042 0  0.06249975932063823 0.6250001412296454 0  -2.402082631737733e-07 0.62500005227748 0  0.1249997524955451 0.6250002193922993 0  0.1874997383463733 0.6250002900639 0  0.2499997165767945 0.6250003522413468 0  0.3124996871494278 0.6250004029841473 0  0.3749996503566 0.6250004378189751 0  0.4374996062335664 0.6250004517436871 0  0.4999995549803244 0.6250004422633705 0  0.5624994980565183 0.6250004109688971 0  0.6249994384730151 0.6250003618566081 0  0.6874993796354745 0.6250002990116444 0  0.7499993246175577 0.6250002263257437 0  0.8124992761597156 0.6250001473539348 0  0.874999236288573 0.6250000652452953 0  0.9374992064744772 0.6249999834205812 0  0.9999991879312045 0.6249999050549814 0  1.06249918133095 0.6249998319526364 0  1.124999186386626 0.6249997648094237 0  1.187499201984283 0.6249997049549324 0  1.249999227275674 0.6249996548455078 0  1.312499261419077 0.6249996162495234 0  1.374999302714703 0.6249995907499376 0  1.43749934974107 0.624999580680818 0  1.499999401248281 0.6249995869922983 0  1.562499455287604 0.6249996092901043 0  1.624999510108151 0.6249996466942155 0  1.68749956386683 0.624999696285463 0  1.749999613782337 0.6249997541039392 0  1.812499657252361 0.6249998169890829 0  1.874999691465302 0.6249998824333078 0  1.93749971195633 0.6249999544131184 0  1.999999716972551 0.6250000538517071 0  0.06249967896065629 0.6875001680408261 0  -3.209322319017378e-07 0.6875001003857583 0  0.1249996751489798 0.6875002320652372 0  0.1874996661649505 0.6875002906303634 0  0.2499996517508815 0.6875003418187839 0  0.3124996320865705 0.6875003827712067 0  0.3749996074727835 0.6875004099963458 0  0.4374995780824031 0.6875004201830408 0  0.4999995440953511 0.6875004115459715 0  0.56249950620796 0.6875003845903535 0  0.6249994659224077 0.6875003416066185 0  0.6874994252545238 0.6875002856540259 0  0.7499993863158096 0.6875002199720484 0  0.8124993510701061 0.6875001477328283 0  0.8749993211402927 0.6875000719843907 0  0.937499297805123 0.6874999957023218 0  0.999999282075943 0.6874999215538459 0  1.062499274571924 0.6874998515389649 0  1.124999275311042 0.6874997871266195 0  1.18749928377745 0.687499729850773 0  1.249999299287156 0.6874996815046636 0  1.312499321037474 0.6874996437777335 0  1.374999347963546 0.6874996182109928 0  1.437499378989466 0.6874996061977907 0  1.499999413067815 0.6874996084418951 0  1.562499448973245 0.6874996247350587 0  1.624999485403253 0.6874996540010377 0  1.68749952088548 0.6874996941377023 0  1.749999553536035 0.6874997424405999 0  1.812499581200675 0.6874997964759755 0  1.874999601437326 0.6874998551404276 0  1.937499612008165 0.6874999207350215 0  1.999999614145951 0.68749999808122 0  0.06249962303857162 0.7500001958769367 0  -3.769437921000896e-07 0.7500001477011938 0  0.1249996210745475 0.7500002452520365 0  0.187499615981516 0.7500002917651308 0  0.249999607365403 0.7500003324770886 0  0.3124995952660922 0.750000364506067 0  0.3749995798405848 0.7500003849627468 0  0.4374995611912299 0.7500003913886336 0  0.4999995394185121 0.750000382397195 0  0.5624995148629195 0.7500003580571604 0  0.6249994882925181 0.7500003197393715 0  0.6874994608570808 0.7500002696428267 0  0.7499994338994979 0.7500002103637238 0  0.8124994087683483 0.7500001446284631 0  0.8749993866802727 0.7500000751586592 0  0.9374993686646377 0.7500000045806955 0  0.9999993555401445 0.749999935280912 0  1.062499347835411 0.7499998692753649 0  1.124999345696738 0.7499998082667841 0  1.187499348912474 0.7499997538507777 0  1.249999357047277 0.7499997076104301 0  1.312499369519928 0.7499996710338728 0  1.374999385626826 0.7499996454250777 0  1.437499404620007 0.7499996317815976 0  1.49999942573218 0.7499996305705929 0  1.562499448123672 0.7499996415703122 0  1.624999470854636 0.7499996638247655 0  1.687499492819576 0.7499996956893444 0  1.749999512668832 0.7499997351068264 0  1.812499528860357 0.7499997800977461 0  1.874999539896264 0.749999829313014 0  1.937499545097408 0.7499998821539894 0  1.999999546044586 0.7499999365041203 0  0.06249958703517741 0.8125002227986592 0  -4.129939149089668e-07 0.8125001910781572 0  0.1249995861930859 0.8125002585220102 0  0.1874995837301744 0.8125002935630778 0  0.2499995792453842 0.8125003244866742 0  0.3124995726199191 0.8125003483906591 0  0.3749995638418084 0.8125003627358389 0  0.4374995528944338 0.8125003655204595 0  0.4999995397725061 0.8125003555810406 0  0.562499524600075 0.8125003327837513 0  0.624999507743167 0.8125002979724313 0  0.6874994898262144 0.8125002527296439 0  0.749999471657382 0.8125001990975396 0  0.8124994541200384 0.8125001393522463 0  0.8749994380760698 0.812500075846287 0  0.9374994243003224 0.8125000108883669 0  0.9999994134298984 0.8124999466343349 0  1.062499405905037 0.8124998850151101 0  1.124999401920578 0.8124998277460316 0  1.187499401431104 0.8124997763928909 0  1.249999404206853 0.8124997324074206 0  1.312499409891067 0.8124996970943343 0  1.374999418043222 0.8124996715379194 0  1.437499428178842 0.8124996564964226 0  1.499999439783082 0.8124996522733713 0  1.562499452290611 0.8124996586176012 0  1.624999465053698 0.8124996746895161 0  1.687499477304917 0.8124996991143917 0  1.749999488146618 0.8124997301438603 0  1.812499496638049 0.8124997658759971 0  1.874999502056188 0.8124998043547302 0  1.937499504388139 0.8124998431397322 0  1.999999504781028 0.8124998776903654 0  0.06249956668585761 0.8750002476033119 0  -4.333751461550725e-07 0.8750002292436191 0  0.1249995665131888 0.8750002713532887 0  0.1874995657214737 0.875000295962132 0  0.2499995639872192 0.8750003179518424 0  0.3124995611085811 0.8750003345010624 0  0.3749995569481479 0.8750003433064023 0  0.4374995513803328 0.8750003426332577 0  0.4999995442988232 0.8750003314476381 0  0.5624995356782074 0.8750003095055038 0  0.6249995256418193 0.8750002773260189 0  0.6874995144888864 0.8750002360576543 0  0.7499995026700965 0.8750001872969051 0  0.8124994907311192 0.8750001329139605 0  0.874999479249142 0.8750000749079999 0  0.93749946877653 0.8750000152902966 0  0.9999994597911009 0.8749999559911016 0  1.062499452650315 0.8749998987992151 0  1.124999447559204 0.8749998453434013 0  1.18749944456714 0.8749997971005297 0  1.249999443592538 0.874999755395939 0  1.312499444458192 0.8749997213743134 0  1.374999446924283 0.874999695942043 0  1.437499450713144 0.8749996796890259 0  1.499999455517683 0.8749996728046409 0  1.562499460991912 0.8749996750127279 0  1.624999466732671 0.874999685547513 0  1.687499472267129 0.8749997031814802 0  1.749999477072531 0.8749997262953376 0  1.812499480664447 0.8749997529324836 0  1.874999482774847 0.8749997807085907 0  1.937499483571342 0.8749998063876525 0  1.999999483702961 0.8749998249675659 0  0.06249955837513244 0.9375002696906399 0  -4.417075214062046e-07 0.9375002619118425 0  0.1249995585844629 0.9375002833279507 0  0.1874995587950991 0.9375002987845221 0  0.2499995587858663 0.9375003128136785 0  0.3124995583378598 0.9375003227801511 0  0.374999557245028 0.9375003265853284 0  0.437499555305664 0.937500322678308 0  0.499999552334997 0.9375003101101046 0  0.5624995482033107 0.9375002885701826 0  0.6249995428796203 0.937500258364294 0  0.6874995364570364 0.9375002203299994 
[...]
<PointData  Scalars="p"> 
<DataArray  type="Float64"  Name="p"  format="ascii">0.0000000000000000e+00  -5.0735099063457464e-04  -5.3281582638764144e-04  0.0000000000000000e+00  -8.8458295648792941e-04  -8.9997788495558488e-04  -1.1478842960592703e-03  -1.1497329800385231e-03  -1.3174811386986454e-03  -1.3085415660463045e-03  -1.4107887595092409e-03  -1.3944691623392950e-03  -1.4416703004705796e-03  -1.4208666804611198e-03  -1.4209821472681930e-03  -1.3979897018421299e-03  -1.3574787495952234e-03  -1.3340494080638320e-03  -1.2584298991088901e-03  -1.2358763993331333e-03  -1.1299901097640498e-03  -1.1092980986844865e-03  -9.7750450683701542e-04  -9.5940777563508720e-04  -8.0571796984278525e-04  -7.9075415889652318e-04  -6.1890769723273664e-04  -6.0746489070361313e-04  -4.2100412035710107e-04  -4.1335144401189583e-04  -2.1567915452805223e-04  -2.1200280316020526e-04  -6.4886327994892294e-06  -6.8969218011228509e-06  2.0297350067044359e-04  1.9849393527114606e-04  4.0920165094783685e-04  4.0072319751134307e-04  6.0860281687200415e-04  5.9628678506954975e-04  7.9739258975866992e-04  7.8151326993652329e-04  9.7157312948137407e-04  9.5251523357871629e-04  1.1267774699722786e-03  1.1050831842348112e-03  1.2581369460486307e-03  1.2345603927469283e-03  1.3601982016966429e-03  1.3357436775999715e-03  1.4266650037358501e-03  1.4026924712056909e-03  1.4501303284113508e-03  1.4284702973780495e-03  1.4217606669435629e-03  1.4048035668556965e-03  1.3306329450767079e-03  1.3214251962202863e-03  1.1628829460523979e-03  1.1649341748948151e-03  9.0083640021555126e-04  9.1665480035912255e-04  5.2240016574202396e-04  5.4730939061361453e-04  0.0000000000000000e+00  0.0000000000000000e+00  -5.8043846634288788e-04  0.0000000000000000e+00  -9.3886222225334577e-04  -1.1654090897919730e-03  -1.3018875156847432e-03  -1.3706157220915681e-03  -1.3853631545813591e-03  -1.3557031193601760e-03  -1.2889473543398749e-03  -1.1910778727972321e-03  -1.0672132997775804e-03  -9.2187731907260068e-04  -7.5916011965004588e-04  -5.8282133767507602e-04  -3.9637575053992169e-04  -2.0317157233855037e-04  -6.4674702404776622e-06  1.9050351776531762e-04  3.8450908440105277e-04  5.7226357679325101e-04  7.5035663116813066e-04  9.1519757096893758e-04  1.0629422658519417e-03  1.1894029221578286e-03  1.2899533235081822e-03  1.3593757840878820e-03  1.3916090625949158e-03  1.3793042297956322e-03  1.3128803924268740e-03  1.1784458662819472e-03  9.5295927681085209e-04  5.9216476372555595e-04  0.0000000000000000e+00  -6.3010478847626164e-04  0.0000000000000000e+00  -9.8866279822789564e-04  -1.1957102674128978e-03  -1.3089671583319735e-03  -1.3574309371497640e-03  -1.3569572877088489e-03  -1.3172603302154717e-03  -1.2450789386877050e-03  -1.1456275730209818e-03  -1.0232760051212600e-03  -8.8188854691533870e-04  -7.2499335831287715e-04  -5.5587698881524622e-04  -3.7765604750896869e-04  -1.9333566044644373e-04  -5.8583913267628902e-06  1.8185585042514122e-04  3.6688038078535478e-04  5.4624526072961281e-04  7.1689266554581996e-04  8.7563602380507526e-04  1.0191072976208078e-03  1.1436904992253151e-03  1.2454330376136537e-03  1.3198854194061164e-03  1.3617831585188672e-03  1.3643807483272048e-03  1.3179678075003693e-03  1.2065536900592116e-03  1.0004671569082367e-03  6.3994054554649088e-04  0.0000000000000000e+00  -6.7925453229208770e-04  0.0000000000000000e+00  -1.0446165558908298e-03  -1.2380825337952341e-03  -1.3310444970978733e-03  -1.3596428704414985e-03  -1.3428283591732750e-03  -1.2912610943872434e-03  -1.2116098869708841e-03  -1.1085983820262285e-03  -9.8597750919647413e-04  -8.4699480309920216e-04  -6.9461156522411093e-04  -5.3161059939401171e-04  -3.6066473938568767e-04  -1.8438155043628901e-04  -5.3327688617619955e-06  1.7392237472512549e-04  3.5081666971310170e-04  5.2275159078396082e-04  6.8707389627155053e-04  8.4104758406682619e-04  9.8181637406180035e-04  1.1063433569493894e-03  1.2113102101156644e-03  1.2929101785852384e-03  1.3463987405286444e-03  1.3651290455468723e-03  1.3384616997437696e-03  1.2473204935151594e-03  1.0549400302298983e-03  6.8804922340521114e-04  0.0000000000000000e+00  -7.2914701566792407e-04  0.0000000000000000e+00  -1.1057617787751238e-03  -1.2904620804425400e-03  -1.3664831118951652e-03  -1.3767762284223966e-03  -1.3437417930632380e-03  -1.2794752855010603e-03  -1.1909826374701400e-03  -1.0827800194129365e-03  -9.5817489696967931e-04  -8.1989477488754101e-04  -6.7037983633523774e-04  -5.1192236911073530e-04  -3.4674378950098466e-04  -1.7703429781853563e-04  -4.9704911824001795e-06  1.6727364749552243e-04  3.3751576392136620e-04  5.0355499863186332e-04  6.6316008330770089e-04  8.1405500885730025e-04  9.5388337061082283e-04  1.0801422523758343e-03  1.1900519048696648e-03  1.2802716643481511e-03  1.3462887336450674e-03  1.3811416728590255e-03  1.3727719486938538e-03  1.2986645226851013e-03  1.1152622522563036e-03  7.3747880744172412e-04  0.0000000000000000e+00  -7.8129355102818409e-04  0.0000000000000000e+00  -1.1721840219248152e-03  -1.3513557519706917e-03  -1.4130349431747467e-03  -1.4065908191198133e-03  -1.3578897988578060e-03  -1.2806682069338785e-03  -1.1825093792122115e-03  -1.0679272335926211e-03  -9.3993630164475566e-04  -8.0084467821272295e-04  -6.5263352933878202e-04  -4.9713898727666835e-04  -3.3614633628788919e-04  -1.7143147940914340e-04  -4.7728291710454123e-06  1.6204578417889346e-04  3.2723314080573726e-04  4.8898820426320736e-04  6.4549969565712371e-04  7.9493427454919844e-04  9.3540210215406732e-04  1.0648713019808756e-03  1.1809960492728908e-03  1.2807474148828558e-03  1.3596339837865282e-03  1.4101327575094095e-03  1.4185572862695842e-03  1.3589372707192235e-03  1.1813001219502404e-03  7.8952561496087315e-04  0.0000000000000000e+00  -8.3655181737840340e-04  0.0000000000000000e+00  -1.2437700180050232e-03  -1.4193180887763172e-03  -1.4683129387832279e-03  -1.4463079160627493e-03  -1.3825330910357636e-03  -1.2923937906972991e-03  -1.1841463220761601e-03  -1.0624132692325873e-03  -9.3001612995030809e-04  -7.8892275989109737e-04  -6.4071379643730207e-04  -4.8680992824083434e-04  -3.2858690209892910e-04  -1.6742355013653999e-04  -4.7118092095460747e-06  1.5814562372830704e-04  3.1973890789831623e-04  4.7865623303526827e-04  6.3348657715815541e-04  7.8281371760823752e-04  9.2517069197713001e-04  1.0589360714171924e-03  1.1821158963267002e-03  1.2918863650627581e-03  1.3836605228458340e-03  1.4492554502019235e-03  1.4733264952260148e-03  1.4265501499016828e-03  1.2527673581600133e-03  8.4489313012473552e-04  0.0000000000000000e+00  -8.9491825536902700e-04  0.0000000000000000e+00  -1.3197009513564693e-03  -1.4925355703217886e-03  -1.5297336068665639e-03  -1.4929409859751836e-03  -1.4146194534967508e-03  -1.3117745905430452e-03  -1.1933292391316450e-03  -1.0640477284483119e-03  -9.2660710045471982e-04  -7.8268625499123385e-04  -6.3351175498054392e-04  -4.8012747143323913e-04  -3.2353096255287317e-04  -1.6472928957389046e-04  -4.7494744987760995e-06  1.5536691488646088e-04  3.1457206381840417e-04  4.7182036202125094e-04  6.2607662491559880e-04  7.7630627695163539e-04  9.2142698074541265e-04  1.0601777430730957e-03  1.1908602312810366e-03  1.3108036329470751e-03  1.4152870509635304e-03  1.4954685300735051e-03  1.5344155723999021e-03  1.4995832681015660e-03  1.3287180237088068e-03  9.0346093234435528e-04  0.0000000000000000e+00  -9.5550848224811534e-04  0.0000000000000000e+00  -1.3982682870728352e-03  -1.5685880088391888e-03  -1.5943759409669423e-03  -1.5433236433746755e-03  -1.4509751479263818e-03  -1.3358090893192801e-03  -1.2073455990993512e-03  -1.0704673608804656e-03  -9.2771687306153516e-04  -7.8051067362977641e-04  -6.2975470985832159e-04  -4.7615058209208964e-04  -3.2035027287566521e-04  -1.6301947388324317e-04  -4.8488267488940256e-06  1.5345379717494128e-04  3.1117457849470927e-04  4.6760608779993699e-04  6.2205594500086222e-04  7.7383958467620146e-04  9.2221925604588247e-04  1.0662606951448565e-03  1.2045311735606583e-03  1.3344965805941107e-03  1.4513217060209839e-03  1.5455719572836184e-03  1.5988482968841517e-03  1.5755388660017031e-03  1.4073444197210589e-03  9.6424819163056386e-04  0.0000000000000000e+00  -1.0165987884786006e-03  0.0000000000000000e+00  -1.4768402907217157e-03  -1.6443548530950594e-03  -1.6588925778037329e-03  -1.5940819386048698e-03  -1.4883520567494108e-03  -1.3614891278159373e-03  -1.2234973340813401e-03  -1.0793231301370393e-03  -9.3135797120134022e-04  -7.8076666010174823e-04  -6.2815903427124523e-04  -4.7392591655805974e-04  -3.1840761945261544e-04  -1.6196267323350533e-04  -4.9791450984900740e-06  1.5213521316953971e-04  3.0896724959501528e-04  4.6511301819708437e-04  6.2018937698949588e-04  7.7382399875976389e-04  9.2559366775349361e-04  1.0748594494890483e-03  1.2204433147379047e-03  1.3599600094597820e-03  1.4885085372343667e-03  1.5961692356520434e-03  1.6632401546570967e-03  1.6512346308525784e-03  1.4859310113101525e-03  1.0254436910646389e-03  0.0000000000000000e+00  -1.0757000478964906e-03  0.0000000000000000e+00  -1.5519207131766306e-03  -1.7160328586586845e-03  -1.7195106545033199e-03  -1.6416391119950520e-03  -1.5234624396048085e-03  -1.3858606427385170e-03  -1.2391887727610578e-03  -1.0883807155807601e-03  -9.3565208639792780e-04  -7.8191828619538232e-04  -6.2751570826447434e-04  -4.7255603705891335e-04  -3.1710458192550194e-04  -1.6125078790930192e-04  -5.1186155721028965e-06  1.5114597571123819e-04  3.0739194226178169e-04  4.6348057919199867e-04  6.1929858792159802e-04  7.7475021652539781e-04  9.2968970927087937e-04  1.0837533747448055e-03  1.2360061286552048e-03  1.3842381482352373e-03  1.5235502318776918e-03  1.6436662175024371e-03  1.7237853450450338e-03  1.7228163092460936e-03  1.5609052241905505e-03  1.0844769317895759e-03  0.0000000000000000e+00  -1.1296668822077232e-03  0.0000000000000000e+00  -1.6192767633589000e-03  -1.7792461513691266e-03  -1.7721100142590112e-03  -1.6822818302811736e-03  -1.5530334572283584e-03  -1.4060857734387437e-03  -1.2519872456762562e-03  -1.0955858285075612e-03  -9.3889138186942006e-04  -7.8257977492705421e-04  -6.2673854574523628e-04  -4.7123772776424243e-04  -3.1590840781099244e-04  -1.6061375692563820e-04  -5.2563124358214147e-06  1.5023709832674110e-04  3.0593496674973707e-04  4.6192070005013515e-04  6.1830844411119165e-04  7.7523614694558591e-04  9.3280014660135184e-04  1.0908794889404145e-03  1.2487781227806753e-03  1.4044773018157578e-03  1.5531571975210916e-03  1.6843264605752876e-03  1.7763333045919959e-03  1.7858600106622075e-03  1.6279655614370179e-03  1.1381257154598281e-03  0.0000000000000000e+00  -1.1748481583773744e-03  0.0000000000000000e+00  -1.6741357994079454e-03  -1.8292288594225516e-03  -1.8123774253783027e-03  -1.7122753364080176e-03  -1.5739005960878928e-03  -1.4195087198057253e-03  -1.2596817280424411e-03  -1.0991059076276028e-03  -9.3957651890137295e-04  -7.8154424444240611e-04  -6.2488799596408786e-04  -4.6927942197708014e-04  -3.1436399465910569e-04  -1.5982583772837096e-04  -5.3930021187975850e-06  1.4918073847894250e-04  3.0413710676171059e-04  4.5973485443071157e-04  6.1626734027395700e-04  7.7405918523692954e-04  9.3340166079217515e-04  1.0943819689764782e-03  1.2565165619118212e-03  1.4179953406184232e-03  1.5741341357811151e-03  1.7143861450945603e-03  1.8165352961426620e-03  1.8355528460782522e-03  1.6822741168179354e-03  1.1826674937245672e-03  0.0000000000000000e+00  -1.2072861865476865e-03  0.0000000000000000e+00  -1.7114468479318972e-03  -1.8610806638607127e-03  -1.8360234156168849e-03  -1.7280355144124941e-03  -1.5831315254887784e-03  -1.4237479668496741e-03  -1.2603372699135627e-03  -1.0973725038581853e-03  -9.3643650096820661e-04  -7.7779879399555399e-04  -6.2117714747676538e-04  -4.6610434911324006e-04  -3.1209390071946879e-04  -1.5870420122314464e-04  -5.5384588225655066e-06  1.4777388678626963e-04  3.0159931014182406e-04  4.5632161550586165e-04  6.1236123500455061e-04  7.7017339177065311e-04  9.3018993986288641e-04  1.0926507756167745e-03  1.2572495441340278e-03  1.4223674108292620e-03  1.5835099072716396e-03  1.7302198178105041e-03  1.8400590142182761e-03  1.8669453891894203e-03  1.7187190425390268e-03  1.2140828936379818e-03  0.0000000000000000e+00  -1.2229601252586658e-03  0.0000000000000000e+00  -1.7261965178781598e-03  -1.8700745244371265e-03  -1.8390415503088499e-03  -1.7263309813647734e-03  -1.5781696009505171e-03  -1.4167876053724725e-03  -1.2523525961508257e-03  -1.0890996028836684e-03  -9.2843782872450401e-04  -7.7051386590271478e-04  -6.1496027367532525e-04  -4.6123527456430185e-04  -3.0878570049017878e-04  -1.5709916819075644e-04  -5.7061276635958059e-06  1.4583962498908339e-04  2.9798011934593715e-04  4.5117309553935987e-04  6.0590931842392098e-04  7.6271361643100437e-04  9.2208827666256672e-04  1.0843585180202102e-03  1.2493263002646159e-03  1.4155290167158050e-03  1.5786762856770215e-03  1.7285452677625705e-03  1.8428496025021098e-03  1.8752627460989720e-03  1.7322390337190237e-03  1.2283073869896637e-03  0.0000000000000000e+00  -1.2180533676888789e-03  0.0000000000000000e+00  -1.7137466710731590e-03  -1.8519696672831313e-03  -1.8179591142233628e-03  -1.7044537494414469e-03  -1.5569349974138517e-03  -1.3970139333425193e-03  -1.2344497310395831e-03  -1.0732491855667231e-03  -9.1472188260859543e-04  -7.5898492185325756e-04  -6.0566980079361022e-04  -4.5424418523011203e-04  -3.0415242395356575e-04  -1.5487053860164320e-04  -5.9052257810529430e-06  1.4321853489915280e-04  2.9297235725149956e-04  4.4383751968085275e-04  5.9631907829742453e-04  7.5094274360328961e-04  9.0820501609821015e-04  1.0684237990901870e-03  1.2314216112106488e-03  1.3958134481698587e-03  1.5574964497600762e-03  1.7065998392015547e-03  1.8213839162005958e-03  1.8562220012307031e-03  1.7181639689620313e-03  1.2215031194366061e-03  0.0000000000000000e+00  -1.1892132872320267e-03  0.0000000000000000e+00  -1.6701427943687593e-03  -1.8032722802943173e-03  -1.7700081206580281e-03  -1.6602912209640907e-03  -1.5178023297682522e-03  -1.3631271515886522e-03  -1.2055335260111879e-03  -1.0488652062195312e-03  -8.9444186704483182e-04  -7.4246821584843812e-04  -5.9268138531698574e-04  -4.4463892893605245e-04  -2.9785382040060433e-04  -1.5184144774465979e-04  -6.1302107663485003e-06  1.3974480104227789e-04  2.8624456877309162e-04  4.3383044319908351e-04  5.8296713209319043e-04  7.3411605399842784e-04  8.8768008552225980e-04  1.0438698216694532e-03  1.2024079830463832e-03  1.3618755176697875e-03  1.5182937858428597e-03  1.6622157715720145e-03  1.7728427429010848e-03  1.8062917782641975e-03  1.6725205145060027e-03  1.1903184824251505e-03  0.0000000000000000e+00  -1.1337452368233687e-03  0.0000000000000000e+00  -1.5923059145954085e-03  -1.7213308796692529e-03  -1.6930848470810692e-03  -1.5921535034307246e-03  -1.4593188684913271e-03  -1.3137844045691056e-03  -1.1643082293875397e-03  -1.0146854775262735e-03  -8.6639619806534566e-04  -7.1986569565469464e-04  -5.7504267219114444e-04  -4.3165891394985381e-04  -2.8935124039345523e-04  -1.4772000576398499e-04  -6.3466524392607063e-06  1.3519437736806179e-04  2.7732568727928479e-04  4.2045434468117098e-04  5.6496267060305368e-04  7.1118573155329117e-04  8.5935415876422074e-04  1.0094601585533668e-03  1.1609944787017807e-03  1.3123589787777782e-03  1.4595808218691169e-03  1.5936540212665247e-03  1.6950718888629642e-03  1.7227819834759138e-03  1.5922194353394760e-03  1.1320765377955226e-03  0.0000000000000000e+00  -1.0496195364771057e-03  0.0000000000000000e+00  -1.4779026243349851e-03  -1.6039967561092177e-03  -1.5851856654929971e-03  -1.4980194748729781e-03  -1.3793331330865094e-03  -1.2466799141594371e-03  -1.1083680351658097e-03  -9.6830247269209400e-04  -8.2828252916161292e-04  -6.8908533910524061e-04  -5.5096380665047517e-04  -4.1388281912529393e-04  -2.7764552382882654e-04  -1.4195941101976021e-04  -6.4771549670626832e-06  1.2917563587631323e-04  2.6536906313529913e-04  4.0243964390790084e-04  5.4065922068944206e-04  6.8019754520528067e-04  8.2104639524721373e-04  9.6288780197463573e-04  1.1048512261048640e-03  1.2449982561172979e-03  1.3792100927590820e-03  1.4988672982275369e-03  1.5860238775555052e-03  1.6035080048121127e-03  1.4749240880542345e-03  1.0447764277127271e-03  0.0000000000000000e+00  -9.3509921989143481e-04  0.0000000000000000e+00  -1.3245349392971366e-03  -1.4483521653872043e-03  -1.4427434804187827e-03  -1.3736151792582911e-03  -1.2729680758787785e-03  -1.1565562109285355e-03  -1.0323435064498794e-03  -9.0449820618284326e-04  -7.7526505534226281e-04  -6.4585323305804329e-04  -5.1686607558588417e-04  -3.8852467912009247e-04  -2.6080295171806978e-04  -1.3351767930343988e-04  -6.3878595448078874e-06  1.2091255516542234e-04  2.4870569029229316e-04  3.7725817779207343e-04  5.0673111582274046e-04  6.3711633531822421e-04  7.6814380036054498e-04  8.9913510485759029e-04  1.0287737091476345e-03  1.1546596581313085e-03  1.2723796394577180e-03  1.3736065085675805e-03  1.4421241310114102e-03  1.4455457797938511e-03  1.3182595406014412e-03  9.2672805251520262e-04  0.0000000000000000e+00  -7.8757026505105339e-04  0.0000000000000000e+00  -1.1274556311714201e-03  -1.2474441294415719e-03  -1.2566828334901587e-03  -1.2081654390195197e-03  -1.1283924556742186e-03  -1.0312210175123324e-03  -9.2430804584567165e-04  -8.1211274254956224e-04  -6.9731782284089994e-04  -5.8153367945397243e-04  -4.6567041588463430e-04  -3.5016161689551268e-04  -2.3511793487709833e-04  -1.2043592756850486e-04  -5.8821869896123509e-06  1.0883806670320988e-04  2.2401365021739947e-04  3.3986171560302015e-04  4.5645651995454041e-04  5.7364688612003946e-04  6.9093836651570742e-04  8.0733205015673501e-04  9.2109647184835709e-04  1.0293739496298597e-03  1.1274352016575860e-03  1.2072301669775326e-03  1.2544046266815038e-03  1.2420561544561738e-03  1.1176274009642459e-03  7.7545871204705492e-04  0.0000000000000000e+00  -6.0047912592591890e-04  0.0000000000000000e+00  -8.7378804739995561e-04  -9.8251221015035095e-04  -1.0036186739846859e-03  -9.7542091579026194e-04  -9.1827536071436070e-04  -8.4377052194971780e-04  -7.5892118639831504e-04  -6.6815354659579163e-04  -5.7429612438392771e-04  -4.7911842280423162e-04  -3.8365543103430856e-04  -2.8842654432718092e-04  -1.9359677605265007e-04  -9.9098376880322190e-05  -4.7221790145852614e-06  8.9804997783166944e-05  1.8475041154023786e-04  2.8030357106205591e-04  3.7649982111322177e-04  4.7312532568827178e-04  5.6959079882516164e-04  6.6476174184627217e-04  7.5673375382285732e-04  8.4248977851262294e-04  9.1732258200784669e-04  9.7382148247564151e-04  9.9991090161628479e-04  9.7485882769323675e-04  8.6088189432774042e-04  5.8506593939212416e-04  0.0000000000000000e+00  -3.5542092944505565e-04  0.0000000000000000e+00  -5.2846796992878911e-04  -6.0541859046461517e-04  -6.2721782375599355e-04  -6.1559448298269953e-04  -5.8318386069824188e-04  -5.3783635417053706e-04  -4.8463477975119727e-04  -4.2692460272307281e-04  -3.6688767021280841e-04  -3.0589412675331327e-04  -2.4473827822414944e-04  -1.8381015313076462e-04  -1.2322466150526984e-04  -6.2917759721956034e-05  -2.7197280095076479e-06  5.7586718349923030e-05  1.1821340872488974e-04  1.7931393065884633e-04  2.4092349699262808e-04  3.0288451857642465e-04  3.6474449378782439e-04  4.2562095469868305e-04  4.8402523327152857e-04  5.3761018761724986e-04  5.8279187177173849e-04  6.1416185605770151e-04  6.2347568461612623e-04  5.9778676344984804e-04  5.1577090648787470e-04  3.4003090239795612e-04  0.0000000000000000e+00  0.0000000000000000e+00  0.0000000000000000e+00  0.0000000000000000e+00  0.0000000000000000e+00  0.0000000000000000e+00  0.0000000000000000e+00  0.0000000000000000e+00  0.0000000000000000e+00  0.0000000000000000e+00  0.0000000000000000e+00  0.0000000000000000e+00  0.0000000000000000e+00  0.0000000000000000e+00  0.0000000000000000e+00  0.0000000000000000e+00  0.0000000000000000e+00  0.0000000000000000e+00  0.0000000000000000e+00  0.0000000000000000e+00  0.0000000000000000e+00  0.0000000000000000e+00  0.0000000000000000e+00  0