<?xml version="1.0"?>
<VTKFile type="UnstructuredGrid"  version="0.1"  >
<UnstructuredGrid>
<Piece  NumberOfPoints="825" NumberOfCells="1536">
<Points>
<DataArray  type="Float64"  NumberOfComponents="3"  format="ascii">1.005039869961272e-22 0.5 0  0.06249999767144006 0.5000001248359165 0  0.06249982094902778 0.5625001446851318 0  -1.749599374652347e-07 0.5625000040797022 0  0.124999981397991 0.5000002371024337 0  0.1249998048445353 0.5625002581921047 0  0.187499955135134 0.5000003666021534 0  0.1874997765690686 0.5625003648678647 0  0.2499998993299135 0.5000004684210756 0  0.249999735088356 0.5625004601098943 0  0.3124998272772847 0.5000005612158305 0  0.3124996787413629 0.5625005430069029 0  0.3749997476798917 0.5000006558188481 0  0.3749996091064557 0.56250061189269 0  0.4374996325043877 0.5000007032548778 0  0.4374995253908061 0.5625006529072133 0  0.4999994861376053 0.5000007059034826 0  0.4999994262658599 0.5625006561755768 0  0.5624993124357299 0.500000650555177 0  0.562499314310962 0.5625006206463705 0  0.6249991469602085 0.5000005799650288 0  0.6249991965756553 0.5625005565094329 0  0.687498982798909 0.5000004802753564 0  0.6874990807778625 0.5625004681223916 0  0.7499988268538177 0.5000003541627795 0  0.749998971440196 0.5625003603761164 0  0.8124987004493579 0.5000002327658606 0  0.8124988748211951 0.5625002438058351 0  0.8749985960895963 0.5000001037366486 0  0.8749987959117185 0.5625001222489492 0  0.9374985228421533 0.4999999773538862 0  0.9374987370741332 0.5624999991732555 0  0.9999984818207804 0.4999998553476785 0  0.9999987003943006 0.5624998759881249 0  1.062498452052668 0.4999997061091985 0  1.062498684287134 0.5624997538456308 0  1.12499848430777 0.4999996181752278 0  1.124998690477076 0.5624996477943537 0  1.187498523351072 0.4999995183830652 0  1.187498720268229 0.5624995519303114 0  1.249998580595279 0.4999994101079267 0  1.249998767827826 0.5624994666584443 0  1.312498693881077 0.4999993728528372 0  1.312498834307411 0.5624994085019318 0  1.374998808733637 0.4999993361179373 0  1.374998919151692 0.5624993714312871 0  1.437498933650723 0.4999993031080078 0  1.43749901479135 0.5624993559349072 0  1.49999910466109 0.4999993557694196 0  1.499999120892225 0.5624993778020152 0  1.562499262834633 0.499999419346436 0  1.562499235779963 0.5624994270715918 0  1.624999414659634 0.4999994870494822 0  1.624999350835208 0.5624994969345332 0  1.68749959499369 0.4999996274435125 0  1.68749946427515 0.5624995942012676 0  1.749999741009146 0.4999997535019058 0  1.749999572493112 0.5624997007747501 0  1.812499855968876 0.4999998524429028 0  1.812499665573511 0.5624998043790698 0  1.874999972770502 0.4999999856255327 0  1.874999741787643 0.5624999085629421 0  1.937500025027236 0.5000000471161437 0  1.937499797460618 0.5625000006659092 0  2 0.5 0  1.999999818378585 0.5625001401681462 0  0.06249967366493885 0.6250001731576219 0  -3.252058671896022e-07 0.6250000527100911 0  0.124999663263532 0.6250002759669028 0  0.1874996424387023 0.6250003686606723 0  0.2499996112887362 0.6250004515164437 0  0.3124995696509197 0.6250005222485429 0  0.374999518588834 0.625000577068904 0  0.4374994589180281 0.6250006088478089 0  0.4999993906807641 0.6250006110795479 0  0.5624993147104079 0.6250005825104585 0  0.6249992340042443 0.6250005267434831 0  0.6874991528985024 0.6250004484036238 0  0.7499990751483202 0.6250003525101326 0  0.8124990047625016 0.6250002452274007 0  0.8749989454894259 0.6250001314942191 0  0.9374988998902714 0.6250000148691407 0  0.9999988695155765 0.6249998981983821 0  1.062498854336802 0.6249997853442032 0  1.124998855063538 0.6249996816553097 0  1.187498872134986 0.6249995892622492 0  1.249998903232637 0.6249995105965599 0  1.312498947502918 0.6249994511901159 0  1.374999004011545 0.6249994129160896 0  1.437499069253745 0.6249993975781795 0  1.499999141549311 0.6249994090552234 0  1.562499219434859 0.6249994456887453 0  1.624999298796497 0.624999503809104 0  1.687499376980195 0.6249995809352995 0  1.749999451219023 0.6249996697016099 0  1.812499516065272 0.6249997628695009 0  1.874999567255403 0.6249998588232366 0  1.937499599054377 0.6249999633190347 0  1.999999606520432 0.6250001088786495 0  0.06249956142801587 0.6875002076948067 0  -4.381168574600586e-07 0.6875001140364349 0  0.1249995554309612 0.6875002940978016 0  0.1874995418662437 0.6875003727273334 0  0.249999520552143 0.6875004425446406 0  0.3124994918926468 0.687500501024111 0  0.3749994567270006 0.687500544422229 0  0.437499415822465 0.6875005680003576 0  0.4999993695360459 0.6875005677027601 0  0.5624993183790351 0.6875005421702961 0  0.624999263770877 0.6875004929442151 0  0.6874992079909352 0.6875004232716472 0  0.7499991535930215 0.6875003372938129 0  0.812499103288194 0.6875002396389598 0  0.8749990596832398 0.6875001346588829 0  0.9374990248318298 0.6875000260903481 0  0.9999990000282827 0.6874999173519674 0  1.062498985852919 0.6874998121336164 0  1.124998982728372 0.6874997142158592 0  1.187498990666733 0.6874996266542026 0  1.249999008779707 0.6874995524154234 0  1.312499036161715 0.6874994947929102 0  1.374999071749514 0.6874994562394369 0  1.437499113844236 0.6874994386507114 0  1.499999161009294 0.6874994433990895 0  1.562499211812714 0.6874994698317188 0  1.62499926409144 0.6874995156452393 0  1.687499315634434 0.6874995775899665 0  1.749999363867165 0.6874996510239182 0  1.812499405149057 0.6874997316102369 0  1.87499943551793 0.6874998180068854 0  1.937499451497198 0.687499914157172 0  1.999999454513544 0.6875000281905548 0  0.06249948150620162 0.7500002448662583 0  -5.182869477428368e-07 0.7500001765915516 0  0.1249994782295621 0.750000313061959 0  0.1874994701694914 0.7500003769887059 0  0.2499994568666424 0.7500004338421393 0  0.3124994385722285 0.7500004806637838 0  0.374999415839522 0.7500005140604543 0  0.4374993891819472 0.7500005305000118 0  0.4999993589088097 0.7500005271640916 0  0.5624993253472522 0.7500005028700463 0  0.6249992892109968 0.7500004583311259 0  0.687499251714303 0.7500003957557202 0  0.7499992144266888 0.7500003183170988 0  0.8124991791147528 0.7500002296875331 0  0.8749991475366158 0.7500001336020573 0  0.9374991211866192 0.7500000336161333 0  0.9999991011313597 0.7499999331422287 0  1.062499088020552 0.7499998355852417 0  1.124999082213027 0.7499997442564269 0  1.187499083724582 0.7499996621864909 0  1.249999092161069 0.7499995922121544 0  1.312499106920236 0.7499995369791886 0  1.374999127234403 0.7499994986543553 0  1.437499152136866 0.7499994787894151 0  1.499999180637088 0.7499994781033047 0  1.562499211652538 0.7499994960770835 0  1.624999243801664 0.7499995309575378 0  1.687499275431805 0.7499995800024363 0  1.749999304508162 0.7499996397957083 0  1.812499328522713 0.7499997071265608 0  1.874999344992641 0.7499997800741028 0  1.937499352733364 0.7499998580947037 0  1.999999354064912 0.7499999384157192 0  0.06249942843375303 0.8125002816803102 0  -5.714965647900526e-07 0.8125002353349101 0  0.1249994268370095 0.8125003322935743 0  0.1874994225764931 0.8125003816822981 0  0.2499994151496228 0.8125004260048643 0  0.3124994045649938 0.8125004619599834 0  0.374999391070597 0.8125004864096347 0  0.4374993749192738 0.812500496491954 0  0.4999993562685711 0.812500490046257 0  0.562499335271427 0.8125004660670397 0  0.6249993122604622 0.812500424886974 0  0.6874992878592882 0.8125003680321101 0  0.7499992629687361 0.8125002979094033 0  0.8124992386781604 0.8125002174627373 0  0.8749992161281508 0.8125001298676819 0  0.9374991963545907 0.8125000383332144 0  0.9999991801754047 0.8124999460310065 0  1.062499168158655 0.8124998560785098 0  1.124999160637986 0.8124997714780148 0  1.187499157704271 0.8124996950359081 0  1.249999159210231 0.8124996293267445 0  1.312499164835439 0.81249957662422 0  1.374999174131985 0.8124995387568673 0  1.437499186549784 0.8124995169548317 0  1.499999201471173 0.8124995116729652 0  1.562499218173777 0.8124995224248082 0  1.624999235746939 0.8124995477650925 0  1.687499253047704 0.812499585428329 0  1.749999268681779 0.8124996326033388 0  1.812499281113195 0.8124996863398737 0  1.874999289106065 0.8124997437739705 0  1.937499292533418 0.8124998014507483 0  1.999999293090122 0.8124998527676321 0  0.06249939681603148 0.8750003162095616 0  -6.032009013646205e-07 0.8750002879855147 0  0.1249993962518237 0.8750003510257087 0  0.1874993944784822 0.8750003868209392 0  0.2499993910808996 0.8750004194085145 0  0.3124993859155781 0.8750004453686697 0  0.3749993789944842 0.8750004617566911 0  0.4374993703523218 0.8750004661090612 0  0.4999993599848171 0.8750004566400287 0  0.5624993478869813 0.8750004324676973 0  0.6249993341499551 0.8750003937213656 0  0.6874993190413137 0.8750003414790444 0  0.7499993030254655 0.8750002775822072 0  0.8124992867253006 0.8750002044016942 0  0.8749992708423625 0.8750001246153047 0  0.9374992560617501 0.8750000410388441 0  0.9999992429742312 0.8749999565204943 0  1.062499232034897 0.8749998738713337 0  1.1249992235495 0.8749997957975664 0  1.187499217669954 0.8749997248307536 0  1.249999214403851 0.8749996632618473 0  1.312499213643135 0.8749996130590634 0  1.374999215192599 0.8749995757583647 0  1.437499218788678 0.8749995523400074 0  1.499999224103839 0.8749995431047027 0  1.562499230721632 0.8749995475819284 0  1.624999238095586 0.8749995645165031 0  1.687499245526883 0.8749995919450261 0  1.749999252193248 0.8749996273381949 0  1.812499257287431 0.8749996677257462 0  1.874999260313021 0.8749997095880462 0  1.937499261449077 0.8749997482000804 0  1.99999926163191 0.8749997761988075 0  0.06249938194814255 0.9375003474057085 0  -6.181238000479225e-07 0.937500333752284 0  0.1249993820001127 0.9375003686281758 0  0.1874993817781052 0.9375003922423389 0  0.2499993809948454 0.9375004141655217 0  0.3124993794478608 0.9375004310692121 0  0.3749993770025802 0.9375004402040815 0  0.4374993735370893 0.9375004393768225 0  0.4999993689131266 0.9375004270352161 0  0.562499362996868 0.9375004023775916 0  0.6249993557143034 0.9375003654076127 0  0.6874993471058205 0.9
[...]
<PointData  Scalars="p"> 
<DataArray  type="Float64"  Name="p"  format="ascii">0.0000000000000000e+00  -8.6140346612561820e-04  -8.9919317471887637e-04  0.0000000000000000e+00  -1.5205294696154872e-03  -1.5429882319865603e-03  -1.9960015279775027e-03  -1.9977276595550104e-03  -2.3144980240864896e-03  -2.2994432120234157e-03  -2.4993633097028494e-03  -2.4729589081015943e-03  -2.5706334413447417e-03  -2.5376545806157598e-03  -2.5460861028600091e-03  -2.5100303810446211e-03  -2.4404366063220987e-03  -2.4041402586249764e-03  -2.2669423723858176e-03  -2.2324154376033895e-03  -2.0374288143857962e-03  -2.0060319727976993e-03  -1.7617411528959605e-03  -1.7347290058567788e-03  -1.4493902303161054e-03  -1.4275330767755390e-03  -1.1091836241300672e-03  -1.0928499131333160e-03  -7.4850031968527449e-04  -7.3809482303388173e-04  -3.7440193091548013e-04  -3.7019145813968116e-04  5.8824043871871330e-06  4.0075874603541684e-06  3.8611814032453614e-04  3.7815680426758676e-04  7.6024100954658730e-04  7.4608714664408315e-04  1.1207920621452280e-03  1.1009162362937619e-03  1.4609589159777934e-03  1.4357218338566752e-03  1.7736160454913500e-03  1.7433546787859601e-03  2.0496796253732588e-03  2.0154456448873165e-03  2.2802052819173532e-03  2.2431254620449122e-03  2.4554182202536617e-03  2.4168399171142648e-03  2.5630062101784060e-03  2.5253264235493705e-03  2.5901611112798509e-03  2.5562657183595761e-03  2.5224603455234339e-03  2.4959039698595120e-03  2.3417092455933850e-03  2.3274768215765370e-03  2.0271925258840032e-03  2.0306260067585722e-03  1.5538011148077959e-03  1.5783706825501125e-03  8.9014607387348900e-04  9.2860564718208677e-04  0.0000000000000000e+00  0.0000000000000000e+00  -9.7279018885321363e-04  0.0000000000000000e+00  -1.6042168301652728e-03  -2.0237808174630432e-03  -2.2909963260941846e-03  -2.4377474868892460e-03  -2.4844689395672869e-03  -2.4465229018439862e-03  -2.3365768241041815e-03  -2.1656903162151665e-03  -1.9437961415077790e-03  -1.6798457795792312e-03  -1.3820912166072599e-03  -1.0581904347746844e-03  -7.1516685094016191e-04  -3.5961659502517523e-04  2.0840587783256624e-06  3.6381164188157986e-04  7.1950362353341297e-04  1.0628041824726714e-03  1.3871484341828502e-03  1.6856492133568537e-03  1.9507388254706092e-03  2.1742710874708307e-03  2.3474200714862898e-03  2.4602944982521496e-03  2.5019109988034397e-03  2.4596930561672577e-03  2.3180053844964006e-03  2.0554577177724631e-03  1.6378277706659596e-03  9.9989497245505190e-04  0.0000000000000000e+00  -1.0544379717497573e-03  0.0000000000000000e+00  -1.6894624665967604e-03  -2.0806077033781005e-03  -2.3122781957155502e-03  -2.4272829755620788e-03  -2.4498065263315414e-03  -2.3956590327057492e-03  -2.2767239015593702e-03  -2.1028863953999671e-03  -1.8828688744127456e-03  -1.6245938100603072e-03  -1.3353881301637999e-03  -1.0220821404258163e-03  -6.9106637180833396e-04  -3.4840569366583526e-04  4.6859835780449985e-08  3.4858752946741563e-04  6.9153319669364307e-04  1.0230557234460157e-03  1.3371272502066302e-03  1.6274314658646233e-03  1.8872100048918396e-03  2.1092171731484726e-03  2.2856194392130427e-03  2.4077573199107220e-03  2.4658052796733576e-03  2.4478855109267765e-03  2.3379164122160948e-03  2.1108268319118659e-03  1.7215435585054993e-03  1.0803165733691534e-03  0.0000000000000000e+00  -1.1420215903491340e-03  0.0000000000000000e+00  -1.7944120854239830e-03  -2.1678154544533101e-03  -2.3688400480531549e-03  -2.4523134375036746e-03  -2.4479714603089556e-03  -2.3735742840896579e-03  -2.2411695750454144e-03  -2.0600057549605144e-03  -1.8378739945721372e-03  -1.5817307200426342e-03  -1.2979774317362107e-03  -9.9259669336390134e-04  -6.7124606716240911e-04  -3.3934416327147007e-04  -2.1454036939755316e-06  3.3519354450423582e-04  6.6752535632417338e-04  9.8961351367180634e-04  1.2960682880993814e-03  1.5812725906526328e-03  1.8392893650902781e-03  2.0637733376923169e-03  2.2478330324032713e-03  2.3837366055151445e-03  2.4622871503968266e-03  2.4714255237027563e-03  2.3931424284527698e-03  2.1968744160041770e-03  1.8255967419112287e-03  1.1674296236810779e-03  0.0000000000000000e+00  -1.2390490566671450e-03  0.0000000000000000e+00  -1.9199926422077799e-03  -2.2848900198435646e-03  -2.4607202709237145e-03  -2.5144157247549643e-03  -2.4821853982720768e-03  -2.3847640451349367e-03  -2.2351748027955262e-03  -2.0425835793713727e-03  -1.8141914662962526e-03  -1.5561627465693229e-03  -1.2740536419459339e-03  -9.7302309492290119e-04  -6.5796522013431143e-04  -3.3359585617317257e-04  -4.5102699685039975e-06  3.2476349857892342e-04  6.4970117179047045e-04  9.6571888617778758e-04  1.2681166672552043e-03  1.5520206815119954e-03  1.8122932320231988e-03  2.0434109807751619e-03  2.2392565777896432e-03  2.3926801125782804e-03  2.4945646321766395e-03  2.5318822718772820e-03  2.4836775673111257e-03  2.3129526960587333e-03  1.9505988887285998e-03  1.2643101950375920e-03  0.0000000000000000e+00  -1.3496063328244110e-03  0.0000000000000000e+00  -2.0686921877466034e-03  -2.4318618816246843e-03  -2.5864704736095609e-03  -2.6117640206637606e-03  -2.5509386878865359e-03  -2.4283183704102958e-03  -2.2584517671925060e-03  -2.0508431283372372e-03  -1.8123907500276820e-03  -1.5486426795541413e-03  -1.2644076085492409e-03  -9.6406467354844417e-04  -6.5174720691963197e-04  -3.3144458968108648e-04  -7.0564339360753810e-06  3.1756499966395128e-04  6.3856921786191326e-04  9.5206011471279006e-04  1.2540545235603224e-03  1.5404216440813839e-03  1.8067855350896020e-03  2.0483501359571344e-03  2.2595963221726531e-03  2.4336690365108081e-03  2.5611143897086050e-03  2.6273903844410387e-03  2.6079811418855871e-03  2.4589360950673317e-03  2.0988351085722530e-03  1.3748825444889761e-03  0.0000000000000000e+00  -1.4770920940795646e-03  0.0000000000000000e+00  -2.2428329166840327e-03  -2.6087037842726138e-03  -2.7440786638333269e-03  -2.7412099882897297e-03  -2.6507132708519670e-03  -2.5008632033143344e-03  -2.3080468547196351e-03  -2.0823560636835919e-03  -1.8305702349261438e-03  -1.5577450747474167e-03  -1.2680186304177077e-03  -9.6503149504667421e-04  -6.5216936085162763e-04  -3.3268999974522036e-04  -9.7805624528418827e-06  3.1340644101924387e-04  6.3371756840282167e-04  9.4796420743057861e-04  1.2528833953710488e-03  1.5450806332177969e-03  1.8209006786071274e-03  2.0762008800132930e-03  2.3059391208102940e-03  2.5033682610736711e-03  2.6584475997616618e-03  2.7548148943713113e-03  2.7640341341954480e-03  2.6347760650540669e-03  2.2726165522102071e-03  1.5025704213747371e-03  0.0000000000000000e+00  -1.6238077036435632e-03  0.0000000000000000e+00  -2.4436882442174382e-03  -2.8146090448902070e-03  -2.9308294519563693e-03  -2.8987759521902322e-03  -2.7769536381282763e-03  -2.5978059503105801e-03  -2.3796833260369124e-03  -2.1333583081587270e-03  -1.8655612220273943e-03  -1.5809094218912035e-03  -1.2829095235692861e-03  -9.7448814826339757e-04  -6.5829633231103649e-04  -3.3686384317340367e-04  -1.2662872384963751e-05  3.1185979827277861e-04  6.3425518400820377e-04  9.5204380786099974e-04  1.2626838060497475e-03  1.5635009818756752e-03  1.8515423329770176e-03  2.1232794206955622e-03  2.3740917245704510e-03  2.5972711011258594e-03  2.7820971936449506e-03  2.9102613426094052e-03  2.9492049907988817e-03  2.8397571539783080e-03  2.4733231160528404e-03  1.6497804288818109e-03  0.0000000000000000e+00  -1.7906517259865000e-03  0.0000000000000000e+00  -2.6708566740519645e-03  -3.0473074272272019e-03  -3.1428351421655992e-03  -3.0795172799074695e-03  -2.9242510396253873e-03  -2.7137508144785675e-03  -2.4683162035381754e-03  -2.1993556139458330e-03  -1.9135213293845592e-03  -1.6149781047493329e-03  -1.3065996248879253e-03  -9.9060432196464783e-04  -6.6891693446178701e-04  -3.4334815634523151e-04  -1.5663718808647819e-05  3.1238766944488138e-04  6.3905371367002455e-04  9.6255801297125631e-04  1.2810688804240967e-03  1.5926298676633658e-03  1.8949794349563786e-03  2.1852101638754370e-03  2.4591362838937169e-03  2.7101144023220980e-03  2.9267884922806403e-03  3.0889262702506956e-03  3.1597435193521182e-03  3.0717489396720043e-03  2.7006838994440906e-03  1.8175141056911530e-03  0.0000000000000000e+00  -1.9767479517996162e-03  0.0000000000000000e+00  -2.9216672065578474e-03  -3.3024294831935134e-03  -3.3745064559069838e-03  -3.2772011191956382e-03  -3.0862288596976910e-03  -2.8425726084521400e-03  -2.5683264898343230e-03  -2.2753916504885852e-03  -1.9702269345069226e-03  -1.6564782050824684e-03  -1.3363525707560434e-03  -1.0113517037177245e-03  -6.8268009257585406e-04  -3.5144438540297979e-04  -1.8723052817670990e-05  3.1441244462830962e-04  6.4688619953687536e-04  9.7760551403854967e-04  1.3054373798850802e-03  1.6291331352075282e-03  1.9471382625688932e-03  2.2571916387395391e-03  2.5556150209002965e-03  2.8359386597890902e-03  3.0863160988111407e-03  3.2847395225224000e-03  3.3902187978675758e-03  3.3265080735039162e-03  2.9521180531741765e-03  2.0049322520690489e-03  0.0000000000000000e+00  -2.1789833775788013e-03  0.0000000000000000e+00  -3.1905829728579096e-03  -3.5729228974186672e-03  -3.6180928964845449e-03  -3.4839857763399539e-03  -3.2553955717088932e-03  -2.9773896879110441e-03  -2.6736045115497691e-03  -2.3561865428568161e-03  -2.0312427267600323e-03  -1.7017933484712599e-03  -1.3693328000260968e-03  -1.0346322036996209e-03  -6.9818721853195237e-04  -3.6042490511982314e-04  -2.1768865318530533e-05  3.1735136223850086e-04  6.5650098156832669e-04  9.9523987124475882e-04  1.3331082747324759e-03  1.6695585413405818e-03  2.0037494189592423e-03  2.3341226389334935e-03  2.6575963249578787e-03  2.9680476714300554e-03  3.2533653351651619e-03  3.4900305795153154e-03  3.6330116221955418e-03  3.5970653428573445e-03  3.2220860745879299e-03  2.2088595438904480e-03  0.0000000000000000e+00  -2.3915090185705661e-03  0.0000000000000000e+00  -3.4686294980502777e-03  -3.8485838344371947e-03  -3.8633317570886676e-03  -3.6902274882027871e-03  -3.4230472849471742e-03  -3.1105838751410951e-03  -2.7776152936833990e-03  -2.4362553824338390e-03  -2.0920484726553732e-03  -1.7472934735660354e-03  -1.4027211226104507e-03  -1.0583740688182896e-03  -7.1406273006990471e-04  -3.6957590405578279e-04  -2.4731052786445988e-05  3.2063155159513517e-04  6.6666596750195332e-04  1.0135356114952436e-03  1.3614148618419221e-03  1.7104300841593841e-03  2.0604595142839450e-03  2.4106811181372817e-03  2.7587264554114073e-03  3.0989924376744363e-03  3.4194058924631649e-03  3.6952936019621209e-03  3.8779531429953729e-03  3.8732127344653961e-03  3.5014969210808416e-03  2.4232536942361319e-03  0.0000000000000000e+00  -2.6052806399586726e-03  0.0000000000000000e+00  -3.7429607627335591e-03  -4.1157600138602207e-03  -4.0973150627905209e-03  -3.8844398759384658e-03  -3.5793283396744649e-03  -3.2338752168786476e-03  -2.8735254045735036e-03  -2.5100138787112706e-03  -2.1481578276227884e-03  -1.7894317259135937e-03  -1.4338005730761382e-03  -1.0805978443249290e-03  -7.2900256679280179e-04  -3.7822697751544690e-04  -2.7552688800573446e-05  3.2369725242935521e-04  6.7619318697580860e-04  1.0306328477830773e-03  1.3877606100666316e-03  1.7483291051707884e-03  2.1129048570690009e-03  2.4814244229711111e-03  2.8522979532928151e-03  3.2206384289842865e-03  3.5746981104157853e-03  3.8891348043267326e-03  4.1121462899188681e-03  4.1411907088715217e-03  3.7772424000296046e-03  2.6387313752746716e-03  0.0000000000000000e+00  -2.8077736082196547e-03  0.0000000000000000e+00  -3.9967006949538026e-03  -4.3573851637088625e-03  -4.3046560966453025e-03  -4.0535382798020606e-03  -3.7134709149707424e-03  -3.3385677260394696e-03  -2.9543760853964398e-03  -2.5719509260656950e-03  -2.1952239202007247e-03  -1.8248410962111753e-03  -1.4600192509047251e-03  -1.0994659031900466e-03  -7.4180752602412815e-04  -3.8577391265804409e-04  -3.0202548442896248e-05  3.2600654756659091e-04  6.8394669827907578e-04  1.0447558056039632e-03  1.4096583344207093e-03  1.7799448520047047e-03  2.1568059268864438e-03  2.5408886310057908e-03  2.9314185542109444e-03  3.3243300652456872e-03  3.7085116451165698e-03  4.0584582087545805e-03  4.3201126166985890e-03  4.3837051277941892e-03  4.0320421805895264e-03  2.8422899145594933e-03  0.0000000000000000e+00  -2.9830310996342185e-03  0.0000000000000000e+00  -4.2092455101592277e-03  -4.5534808472467766e-03  -4.4680640763719269e-03  -4.1834011399301237e-03  -3.8142794922147549e-03  -3.4159214090844414e-03  -3.0133820515800872e-03  -2.6167982761093863e-03  -2.2291846499589009e-03  -1.8503998974631264e-03  -1.4790445240510975e-03  -1.1133090850207455e-03  -7.5140463106529085e-04  -3.9169440659709729e-04  -3.2690475273874679e-05  3.2701738054829234e-04  6.8883039491794706e-04  1.0542107556924232e-03  1.4247387897968363e-03  1.8021215181501539e-03  2.1880402743972628e-03  2.5837542396249017e-03  2.9892210669272964e-03  3.4012436084341412e-03  3.8095438034007841e-03  4.1889984683031629e-03  4.4843520543029437e-03  4.5804366780965054e-03  4.2447839483792634e-03  3.0173908553386987e-03  0.0000000000000000e+00  -3.1121897670411632e-03  0.0000000000000000e+00  -4.3571584564493504e-03  -4.6821727953630776e-03  -4.5693062578665818e-03  -4.2596494242212301e-03  -3.8707154172729179e-03  -3.4575264540969417e-03  -3.0441333578022892e-03  -2.6396390697193211e-03  -2.2462432837049135e-03  -1.8632069829665398e-03  -1.4886889652615831e-03  -1.1205679786697549e-03  -7.5679291323359416e-04  -3.9551680787972736e-04  -3.5058183901102587e-05  3.2617168235846535e-04  6.8975303409213057e-04  1.0573335756173538e-03  1.4307040179720634e-03  1.8118150589707706e-03  2.2026645115006986e-03  2.6049139997995612e-03  3.0190879937028255e-03  3.4427344360368874e-03  3.8664902312903833e-03  4.2660889964185236e-03  4.5862864384291959e-03  4.7090685893357931e-03  4.3914433365751142e-03  3.1445324638552027e-03  0.0000000000000000e+00  -3.1745791096284737e-03  0.0000000000000000e+00  -4.4156781984678777e-03  -4.7211611057445813e-03  -4.5903951098332264e-03  -4.2684606713027399e-03  -3.8723264994400875e-03  -3.4554482129105046e-03  -3.0405024701672641e-03  -2.6356694950101559e-03  -2.2425962631060221e-03  -1.8602480416115314e-03  -1.4866336470251093e-03  -1.1195382806124489e-03  -7.5686140472354358e-04  -3.9670237006228417e-04  -3.7338004204932356e-05  3.2286416345321013e-04  6.8552317680989805e-04  1.0523275748153670e-03  1.4251065295743705e-03  1.8058658121893323e-03  2.1966715551939675e-03  2.5993247124490339e-03  3.0145989880239047e-03  3.4405149985104418e-03  3.8685098822681761e-03  4.2754744180195361e-03  4.6074579626677300e-03  4.7467774369805184e-03  4.4466464573368345e-03  3.2024280446896636e-03  0.0000000000000000e+00  -3.1493853838344935e-03  0.0000000000000000e+00  -4.3607211452908676e-03  -4.6493938019642423e-03  -4.5146512305655005e-03  -4.1970037376795151e-03  -3.8091445993395381e-03  -3.4017241819269271e-03  -2.9959373902326385e-03  -2.5993742197615325e-03  -2.2135861479243581e-03  -1.8376479136608702e-03  -1.4697451667940935e-03  -1.1078472854978208e-03  -7.4999595657212776e-04  -3.9441519969503878e-04  -3.9477765535070436e-05  3.1635508300861457e-04  6.7460995409981234e-04  1.0368674785474921e-03  1.4048333725493706e-03  1.7803519709318550e-03  2.1653072334130632e-03  2.5612923986537560e-03  2.9689299560191531e-03  3.3862713718983096e-03  3.8051915843219592e-03  4.2038149835920491e-03  4.5306507829831833e-03  4.6719622449559149e-03  4.3857658464354597e-03  3.1697776257437246e-03  0.0000000000000000e+00  -3.0175699921143571e-03  0.0000000000000000e+00  -4.1707915104183813e-03  -4.4481416378453825e-03  -4.3267217398214857e-03  -4.0325077747440296e-03  -3.6701002746814841e-03  -3.2863978923861250e-03  -2.9013378072770377e-03  -2.5224748856366467e-03  -2.1518126638416890e-03  -1.7889925747307824e-03  -1.4327137102631772e-03  -1.0813629726679516e-03  -7.3332140010131579e-04  -3.8707302956287844e-04  -4.1218745426453783e-05  3.0557438958946071e-04  6.5462037491328734e-04  1.0072709420480943e-03  1.3649547045556855e-03  1.7291795557095636e-03  2.1013893258157849e-03  2.4826437639984995e-03  2.8729656040041708e-03  3.2698765830301629e-03  3.6651465544706354e-03  4.0378997794240888e-03  4.3399966004660775e-03  4.4653968097308388e-03  4.1869118450337563e-03  3.0272853857043745e-03  0.0000000000000000e+00  -2.7632606022679391e-03  0.0000000000000000e+00  -3.8274484102436999e-03  -4.0997340395182600e-03  -4.0096505624446924e-03  -3.7581290962749188e-03  -3.4382313652864013e-03  -3.0925833845781613e-03  -2.7403123929906643e-03  -2.3895586042501516e-03  -2.0432959030174795e-03  -1.7020878816332219e-03  -1.3653900476966274e-03  -1.0321796574396865e-03  -7.0128806692089558e-04  -3.7156891281581639e-04  -4.1934177418915756e-05  2.8865253104576295e-04  6.2121076856089415e-04  9.5676933741997521e-04  1.2963875641114843e-03  1.6411043415729284e-03  1.9917646878000153e-03  2.3486450362478492e-03  2.7108022793245375e-03  3.0747285442862659e-03  3.4314735561156765e-03  3.7607251094346709e-03  4.0182428802232883e-03  4.1091345620714531e-03  3.8315434416431311e-03  2.7591788708602578e-03  0.0000000000000000e+00  -2.3729345552570068e-03  0.0000000000000000e+00  -3.3114901014388324e-03  -3.5804652375854432e-03  -3.5353359302740207e-03  -3.3421693205383709e-03  -3.0796962718459583e-03  -2.7859593844644934e-03  -2.4795882795340600e-03  -2.1696199189302390e-03  -1.8601861839715632e-03  -1.5528681669657750e-03  -1.2479128666905077e-03  -9.4490393467070355e-04  -6.4315559089905513e-04  -3.4191627411929069e-04  -4.0456866356914913e-05  2.6192119462131090e-04  5.6589465946470208e-04  8.7213596918540729e-04  1.1812986752327351e-03  1.4939386342069758e-03  1.8102747855066924e-03  2.1297652387336692e-03  2.4504168470283875e-03  2.7674947145474682e-03  3.0710353893762636e-03  3.3410423481756743e-03  3.5375786343109020e-03  3.5797903823875290e-03  3.3010409755586398e-03  2.3526984473830558e-03  0.0000000000000000e+00  -1.8285364855642570e-03  0.0000000000000000e+00  -2.5883407466643256e-03  -2.8400397909588890e-03  -2.8409262036997274e-03  -2.7139669706891536e-03  -2.5208548832379527e-03  -2.2939197340274319e-03  -2.0505419167751514e-03  -1.8000276808632478e-03  -1.5471468940636169e-03  -1.2940998972183647e-03  -1.0416591447412911e-03  -7.8985371654277409e-04  -5.3838606079662638e-04  -2.8686588344157025e-04  -3.4905033920582874e-05  2.1785606458678736e-04  4.7176025622672809e-04  7.2714003027454853e-04  9.8429936317119679e-04  1.2434054773100261e-03  1.5042342073611089e-03  1.7657127525482653e-03  2.0252054864633865e-03  2.2773026621050233e-03  2.5117134062127796e-03  2.7096090202778007e-03  2.8366619403943044e-03  2.8289855918795246e-03  2.5634044116063523e-03  1.7924251565853300e-03  0.0000000000000000e+00  -1.0847292505026531e-03  0.0000000000000000e+00  -1.5676035000743442e-03  -1.7516884000131627e-03  -1.7768995078996004e-03  -1.7144986597297206e-03  -1.6034560564183841e-03  -1.4659491246055598e-03  -1.3147020543906270e-03  -1.1568494818635731e-03  -9.9617775923648770e-04  -8.3450760429289552e-04  -6.7255755629571810e-04  -5.1048508438920317e-04  -3.4821520473088158e-04  -1.8561549765183698e-04  -2.2570505517977456e-05  1.4100904698446771e-04  3.0520012486218260e-04  4.7008393362144349e-04  6.3573187962197265e-04  8.0212782226431547e-04  9.6896560494244446e-04  1.1352893947090545e-03  1.2989236403447972e-03  1.4555390610625461e-03  1.5971627363408846e-03  1.7098423055881041e-03  1.7697089427675735e-03  1.7359226048838498e-03  1.5370513787965865e-03  1.0426764465119812e-03  0.0000000000000000e+00  0.0000000000000000e+00  0.0000000000000000e+00  0.0000000000000000e+00  0.0000000000000000e+00  0.0000000000000000e+00  0.0000000000000000e+00  0.0000000000000000e+00  0.0000000000000000e+00  0.0000000000000000e+00  0.0000000000000000e+00  0.0000000000000000e+00  0.0000000000000000e+00  0.0000000000000000e+00  0.0000000000000000e+00  0.0000000000000000e+00  0.0000000000000000e+00  0.0000000000000000e+00  0.0000000000000000e+00  0.0000000000000000e+00  0.0000000000000000e+00  0.0000000000000000e+00  0.0000000000000000e+00  0.000