<?xml version="1.0"?>
<VTKFile type="UnstructuredGrid"  version="0.1"  >
<UnstructuredGrid>
<Piece  NumberOfPoints="825" NumberOfCells="1536">
<Points>
<DataArray  type="Float64"  NumberOfComponents="3"  format="ascii">-1.043738836868172e-21 0.5 0  0.06249999999285771 0.5000000004264468 0  0.06249999849668878 0.5625000014560547 0  -2.870538430946588e-09 0.562500000083161 0  0.1249999998828217 0.5000000006677547 0  0.1249999989037074 0.5625000016084918 0  0.1874999994671344 0.5000000004723087 0  0.1874999987266304 0.562500001330237 0  0.2499999989581275 0.5000000005276569 0  0.249999998192559 0.5625000009699358 0  0.3124999981646736 0.5000000003948655 0  0.3124999973731751 0.5625000003726348 0  0.3749999964550272 0.4999999992212388 0  0.3749999961616132 0.5624999994095542 0  0.4374999945805789 0.4999999980683111 0  0.4374999947828032 0.562499998425824 0  0.4999999927584854 0.4999999969758652 0  0.4999999934431856 0.5624999973608937 0  0.5624999908431915 0.4999999953170208 0  0.562499992246472 0.5624999963831139 0  0.6249999903682222 0.4999999952821454 0  0.6249999915481937 0.5624999961191831 0  0.6874999905988128 0.4999999957235888 0  0.6874999913554005 0.5624999959789375 0  0.7499999900748276 0.4999999945379868 0  0.7499999912383062 0.5624999955396387 0  0.8124999904725144 0.4999999947532109 0  0.8124999914111894 0.5624999954884027 0  0.8749999913220609 0.4999999951058173 0  0.8749999918324686 0.5624999953217489 0  0.9374999912105723 0.4999999937589433 0  0.9374999921736097 0.5624999948332552 0  0.9999999920206569 0.4999999939982226 0  0.9999999926898777 0.562499994746578 0  1.062499993077475 0.4999999942559593 0  1.062499993329591 0.5624999945240654 0  1.12499999305561 0.4999999928944103 0  1.124999993800359 0.5624999939962281 0  1.187499993866067 0.4999999930341824 0  1.187499994357903 0.562499993886546 0  1.249999994961768 0.4999999933876429 0  1.249999994979246 0.5624999937281741 0  1.312499994932943 0.4999999922141542 0  1.312499995375658 0.5624999933401587 0  1.374999995602658 0.4999999925042205 0  1.374999995782827 0.5624999933987763 0  1.437499996380133 0.4999999929450824 0  1.43749999617738 0.5624999935131162 0  1.499999996308708 0.4999999924808397 0  1.499999996321554 0.5624999937061315 0  1.56249999681216 0.4999999937762921 0  1.562499996485431 0.5624999945642315 0  1.624999997553558 0.4999999954448645 0  1.624999996736539 0.5624999956199452 0  1.687499997973091 0.4999999963383296 0  1.687499996901294 0.562499996664848 0  1.749999998753607 0.4999999977897022 0  1.749999997095147 0.5624999979265736 0  1.812499999511759 0.4999999989317496 0  1.812499997279983 0.5624999991367449 0  1.87499999990306 0.4999999994877219 0  1.874999997306089 0.5625000003702255 0  1.937500000175073 0.5000000000640749 0  1.937499997454366 0.5625000019542344 0  2 0.5 0  1.999999999847683 0.5625000036438882 0  0.06249999732513371 0.6250000016609465 0  -3.613598865023189e-09 0.6250000006639452 0  0.1249999978245639 0.6250000018882598 0  0.1874999978490785 0.6250000016609595 0  0.2499999974997878 0.6250000012047138 0  0.3124999968680719 0.6250000005530337 0  0.3749999959881348 0.6249999997282556 0  0.4374999949685632 0.6249999988367809 0  0.4999999939507547 0.6249999979454471 0  0.5624999930349773 0.6249999971947878 0  0.6249999923749086 0.6249999967368343 0  0.6874999920465765 0.6249999964337396 0  0.7499999919365129 0.6249999961541737 0  0.8124999920209682 0.62499999594976 0  0.874999992291305 0.6249999957305765 0  0.9374999926365176 0.6249999954577283 0  0.9999999930556037 0.6249999952308254 0  1.062499993551992 0.624999994979474 0  1.124999994028834 0.6249999946814829 0  1.187499994492581 0.6249999944559608 0  1.249999994956391 0.6249999942593435 0  1.312499995334208 0.6249999940823121 0  1.374999995631596 0.6249999940477188 0  1.437499995857519 0.624999994155374 0  1.499999995954849 0.6249999944588284 0  1.562499995978761 0.6249999950714379 0  1.624999995987652 0.6249999959187852 0  1.68749999595792 0.6249999969292723 0  1.749999995913131 0.6249999981087946 0  1.812499995877419 0.624999999418231 0  1.874999995901122 0.6250000008863422 0  1.937499996309567 0.6250000024778033 0  1.999999997518367 0.6250000033275318 0  0.06249999659793073 0.68750000153327 0  -3.920908799697035e-09 0.6875000008383514 0  0.1249999969771185 0.6875000017682016 0  0.1874999970687503 0.6875000016172522 0  0.2499999968696159 0.6875000012081299 0  0.3124999964263447 0.6875000006177462 0  0.3749999957924436 0.6874999999039181 0  0.4374999950449191 0.6874999991366686 0  0.4999999942751073 0.6874999983890664 0  0.562499993570876 0.6874999977457812 0  0.6249999930252994 0.6874999972624061 0  0.6874999926922261 0.687499996905479 0  0.7499999925547539 0.6874999966188473 0  0.8124999925887868 0.6874999963759332 0  0.8749999927677858 0.6874999961429872 0  0.9374999930439075 0.6874999959028099 0  0.9999999933900299 0.6874999956655493 0  1.062499993784149 0.687499995422844 0  1.124999994185079 0.6874999951770415 0  1.187499994571711 0.68749999495757 0  1.249999994928847 0.6874999947756057 0  1.312499995222655 0.687499994649588 0  1.374999995436534 0.68749999462457 0  1.437499995562348 0.6874999947372332 0  1.499999995589472 0.6874999950300287 0  1.562499995538868 0.6874999955419586 0  1.624999995441902 0.6874999962652232 0  1.687499995317077 0.6874999971739992 0  1.749999995195409 0.6874999982484853 0  1.812499995126362 0.6874999994562159 0  1.874999995198071 0.6875000007324281 0  1.937499995541472 0.68750000187105 0  1.999999996044608 0.6875000024675978 0  0.06249999613977484 0.750000001274338 0  -4.121711800707981e-09 0.7500000007959524 0  0.1249999963766972 0.7500000014753873 0  0.1874999964607418 0.7500000013839444 0  0.2499999963481037 0.7500000010595237 0  0.3124999960491434 0.7500000005680602 0  0.3749999956008077 0.7499999999700211 0  0.4374999950577333 0.7499999993256831 0  0.49999999448483 0.749999998695053 0  0.5624999939495927 0.7499999981328989 0  0.6249999935154714 0.7499999976704097 0  0.6874999932236292 0.7499999973011402 0  0.7499999930824086 0.7499999969989856 0  0.8124999930813342 0.7499999967384086 0  0.874999993199457 0.749999996497262 0  0.9374999934079574 0.7499999962624928 0  0.9999999936801128 0.7499999960308203 0  1.062499993990283 0.7499999958014795 0  1.124999994310319 0.7499999955803442 0  1.187499994616588 0.7499999953819249 0  1.249999994888309 0.7499999952224824 0  1.31249999510357 0.7499999951235703 0  1.374999995246231 0.7499999951150194 0  1.437499995307434 0.7499999952287952 0  1.499999995286514 0.7499999954960803 0  1.562499995197387 0.7499999959390857 0  1.624999995063993 0.7499999965600397 0  1.687499994914364 0.7499999973440357 0  1.749999994784887 0.749999998262159 0  1.812499994722846 0.7499999992616082 0  1.874999994780252 0.7500000002437605 0  1.937499994968598 0.750000001042732 0  1.999999995150774 0.7500000015114204 0  0.06249999582957055 0.8125000009855116 0  -4.290101935202734e-09 0.8125000006610585 0  0.1249999959601499 0.812500001140533 0  0.1874999960140457 0.8125000010845853 0  0.2499999959443155 0.8125000008383289 0  0.3124999957431076 0.8125000004461619 0  0.3749999954294277 0.8124999999581787 0  0.4374999950394792 0.8124999994247032 0  0.4999999946193223 0.812499998893127 0  0.5624999942183452 0.8124999984026001 0  0.6249999938820219 0.8124999979758977 0  0.6874999936426079 0.8124999976154084 0  0.7499999935138573 0.8124999973094245 0  0.8124999934938623 0.8124999970415416 0  0.874999993569783 0.8124999967965701 0  0.9374999937220476 0.8124999965642226 0  0.9999999939286807 0.8124999963399475 0  1.062499994166853 0.8124999961239601 0  1.124999994413411 0.8124999959218083 0  1.187499994646804 0.8124999957443902 0  1.249999994847522 0.8124999956066647 0  1.31249999499826 0.8124999955278368 0  1.374999995086212 0.8124999955310652 0  1.437499995105125 0.8124999956408591 0  1.499999995057134 0.8124999958792926 0  1.562499994954403 0.8124999962604051 0  1.624999994817798 0.8124999967847446 0  1.687499994674477 0.8124999974369163 0  1.749999994556513 0.8124999981830712 0  1.812499994496752 0.8124999989650459 0  1.87499999451557 0.812499999694872 0  1.937499994593022 0.8125000002677537 0  1.999999994647568 0.8125000006247275 0  0.062499995604992 0.8750000007152974 0  -4.442944742846473e-09 0.875000000498523 0  0.1249999956685364 0.8750000008258642 0  0.1874999956941275 0.8750000007870118 0  0.249999995644667 0.8750000006003003 0  0.3124999955068334 0.8750000002920258 0  0.3749999952880538 0.8749999998989714 0  0.4374999950107392 0.8749999994604387 0  0.4999999947064775 0.8749999990132414 0  0.5624999944104382 0.8749999985871705 0  0.624999994155552 0.8749999982007906 0  0.6874999939667799 0.8749999978599802 0  0.7499999938576231 0.8749999975607058 0  0.8124999938301888 0.8749999972939428 0  0.8749999938773823 0.8749999970500869 0  0.9374999939857752 0.8749999968219201 0  0.9999999941383421 0.8749999966059608 0  1.062499994316307 0.8749999964028174 0  1.124999994500457 0.8749999962173985 0  1.187499994672408 0.8749999960587738 0  1.249999994815573 0.8749999959396755 0  1.31249999491612 0.8749999958759869 0  1.374999994964451 0.8749999958857217 0  1.437499994956778 0.8749999959869397 0  1.499999994896423 0.8749999961946081 0  1.562499994794388 0.8749999965166232 0  1.624999994668503 0.8749999969498969 0  1.6874999945414 0.874999997477318 0  1.749999994437354 0.8749999980652134 0  1.812499994376545 0.8749999986616817 0  1.874999994365367 0.8749999991997131 0  1.937499994386113 0.8749999996131759 0  1.999999994401268 0.8749999998684118 0  0.0624999954338911 0.9375000004834528 0  -4.582374856405801e-09 0.9375000003409883 0  0.1249999954603548 0.9375000005562247 0  0.1874999954669588 0.9375000005230559 0  0.249999995428259 0.9375000003776753 0  0.3124999953317614 0.9375000001341728 0  0.3749999951790401 0.9374999998176495 0  0.4374999949832657 0.9374999994571926 0  0.4999999947653868 0.9374999990808504 0  0.5624999945498811 0.9374999987118008 0  0.624999994360402 0.9374999983656617 0  0.6874999942158454 0.93749999804967
[...]
<PointData  Scalars="p"> 
<DataArray  type="Float64"  Name="p"  format="ascii">0.0000000000000000e+00  -4.4157706438897120e-06  -4.7195779624348506e-06  0.0000000000000000e+00  -7.5364432211133791e-06  -7.7756711113779222e-06  -9.5371464733732222e-06  -9.6669726029095417e-06  -1.0651990845591319e-05  -1.0695957216661495e-05  -1.1092488598252467e-05  -1.1080898592176955e-05  -1.1031043988093233e-05  -1.0986764481866215e-05  -1.0596652118495364e-05  -1.0536004375073919e-05  -9.8840298589790933e-06  -9.8187447775223557e-06  -8.9665020935839575e-06  -8.9036210474071531e-06  -7.8996553479260220e-06  -7.8432656515062123e-06  -6.7266492856231707e-06  -6.6780305391392719e-06  -5.4770337873451465e-06  -5.4371036203525724e-06  -4.1723047896661306e-06  -4.1417121239759689e-06  -2.8290947641158875e-06  -2.8084451415985603e-06  -1.4624442017033225e-06  -1.4514838809578219e-06  -8.3398328887671803e-08  -8.2351005654033895e-08  1.2979875662798708e-06  1.2886542062289771e-06  2.6699815732822659e-06  2.6503881141772124e-06  4.0213287914231411e-06  3.9911388001670543e-06  5.3381765255095702e-06  5.2970571841935904e-06  6.6014066503476098e-06  6.5500222545297696e-06  7.7883768024382762e-06  7.7275548557160933e-06  8.8688243144886791e-06  8.8003947266292432e-06  9.8007230547729049e-06  9.7291079562017846e-06  1.0530273859404325e-05  1.0462425954350090e-05  1.0985606966011942e-05  1.0932760253849385e-05  1.1069588763864683e-05  1.1049740212601161e-05  1.0655634645089579e-05  1.0693700697147149e-05  9.5769258209848323e-06  9.7032588378922903e-06  7.6179266114097569e-06  7.8540266311687512e-06  4.5206429984653877e-06  4.8141127041103147e-06  0.0000000000000000e+00  0.0000000000000000e+00  -5.3080472065417066e-06  0.0000000000000000e+00  -8.3409000700735874e-06  -1.0047156929598243e-05  -1.0893283547816483e-05  -1.1141236843218524e-05  -1.0956818921275969e-05  -1.0452989218830977e-05  -9.7102595076809575e-06  -8.7884666450244418e-06  -7.7332620026138966e-06  -6.5796949530070529e-06  -5.3541334746724859e-06  -4.0765012013867742e-06  -2.7625853533470012e-06  -1.4256005370713332e-06  -7.6830409119093529e-08  1.2733716460142497e-06  2.6143779051538793e-06  3.9346980966276561e-06  5.2209160764494252e-06  6.4564117260826536e-06  7.6204831953477005e-06  8.6866661438484321e-06  9.6204618255195983e-06  1.0377073526361251e-05  1.0897512241595762e-05  1.1102228290830391e-05  1.0880467720410761e-05  1.0067911481873893e-05  8.3968976348355723e-06  5.3773980364133856e-06  0.0000000000000000e+00  -5.9413778373421788e-06  0.0000000000000000e+00  -9.0386268289371993e-06  -1.0593015556364202e-05  -1.1245371051639631e-05  -1.1325812719508556e-05  -1.1017578395184867e-05  -1.0431437319905439e-05  -9.6400131262005262e-06  -8.6944016210163020e-06  -7.6325506307464794e-06  -6.4834744961708301e-06  -5.2694895575174357e-06  -4.0080256914578058e-06  -2.7132152528931183e-06  -1.3970069076597085e-06  -6.9888470286355973e-08  1.2583490957372634e-06  2.5778049751339791e-06  3.8777959815945740e-06  5.1460901732717862e-06  6.3680480912589074e-06  7.5257686790707641e-06  8.5968109701323601e-06  9.5524564443318036e-06  1.0355337825441962e-05  1.0955183706787263e-05  1.1280672520222239e-05  1.1222899928130925e-05  1.0599500898731052e-05  9.0759852524395909e-06  5.9933048599904625e-06  0.0000000000000000e+00  -6.5553564589519085e-06  0.0000000000000000e+00  -9.7707795704996214e-06  -1.1222561001487295e-05  -1.1704126824017551e-05  -1.1617981674252992e-05  -1.1174545088395668e-05  -1.0489883358413099e-05  -9.6329195360299395e-06  -8.6481607602795399e-06  -7.5668147178076858e-06  -6.4121365603031256e-06  -5.2020712090759049e-06  -3.9509446662822294e-06  -2.6706727731738674e-06  -1.3715505298864557e-06  -6.2817258243519109e-08  1.2467894627850176e-06  2.5484651790247476e-06  3.8328111905855337e-06  5.0892856691063417e-06  6.3056465425822723e-06  7.4672536973279624e-06  8.5560441779961823e-06  9.5489472152948920e-06  1.0415226201386912e-05  1.1111195569985363e-05  1.1569292283808012e-05  1.1675172251019394e-05  1.1219229532547121e-05  9.7956376293520657e-06  6.5959589695955368e-06  0.0000000000000000e+00  -7.1310335094416670e-06  0.0000000000000000e+00  -1.0489229986552127e-05  -1.1877650763356271e-05  -1.2218411755409085e-05  -1.1980830659078728e-05  -1.1405185044744613e-05  -1.0617303876372641e-05  -9.6861215058624378e-06  -8.6521059708186743e-06  -7.5412848077473361e-06  -6.3719749479657895e-06  -5.1579967500466333e-06  -3.9104623504923278e-06  -2.6388302010087501e-06  -1.3514802925634211e-06  -5.6096765952293590e-08  1.2399640653705576e-06  2.5292995177099258e-06  3.8040948339996839e-06  5.0557867514722792e-06  6.2746871918632681e-06  7.4494758560483335e-06  8.5662384987361063e-06  9.6068017762943242e-06  1.0545575610009931e-05  1.1342898834414986e-05  1.1931147822523939e-05  1.2186108186013150e-05  1.1868355425857120e-05  1.0505929927198642e-05  7.1638278861683974e-06  0.0000000000000000e+00  -7.6600952302325974e-06  0.0000000000000000e+00  -1.1166982916458489e-05  -1.2518470076894371e-05  -1.2745682340518413e-05  -1.2376382953480382e-05  -1.1679306972981500e-05  -1.0791662465874009e-05  -9.7847174172148174e-06  -8.6969591337742370e-06  -7.5507598349718436e-06  -6.3604874580000724e-06  -5.1363738747477213e-06  -3.8865263513013628e-06  -2.6179634025262402e-06  -1.3370723016637768e-06  -4.9845361806618067e-08  1.2379082156505184e-06  2.5203406265844837e-06  3.7913612392589743e-06  5.0444392256094341e-06  6.2724045370041921e-06  7.4670004856888603e-06  8.6179400827505538e-06  9.7109912735306770e-06  1.0724185400858402e-05  1.1619802524670031e-05  1.2327798375864969e-05  1.2712440298940885e-05  1.2505840992135687e-05  1.1178104554733132e-05  7.6869362751269495e-06  0.0000000000000000e+00  -8.1357994466635275e-06  0.0000000000000000e+00  -1.1785360223969151e-05  -1.3116241191483448e-05  -1.3252416934106866e-05  -1.2771537027307662e-05  -1.1967568819124829e-05  -1.0988855176531618e-05  -9.9100228590209217e-06  -8.7689158533740928e-06  -7.5854585928678752e-06  -6.3710016518660461e-06  -5.1328195128056264e-06  -3.8763898956006913e-06  -2.6064908149141754e-06  -1.3276032542513881e-06  -4.4047641321230753e-08  1.2399213721216852e-06  2.5200211117650021e-06  3.7918505032552180e-06  5.0508255709789551e-06  6.2920510229590809e-06  7.5099604076719565e-06  8.6972448592622250e-06  9.8426824186082927e-06  1.0926721489315134e-05  1.1912206813813471e-05  1.2725605624570888e-05  1.3219906225093310e-05  1.3101932176120767e-05  1.1792321048641970e-05  8.1575649486340371e-06  0.0000000000000000e+00  -8.5508715056537113e-06  0.0000000000000000e+00  -1.2328940425195978e-05  -1.3648532408510601e-05  -1.3712089353576818e-05  -1.3138946548924573e-05  -1.2244381893385804e-05  -1.1186581243246838e-05  -1.0043637890290967e-05  -8.8534468438148707e-06  -7.6343317447838501e-06  -6.3953993514513225e-06  -5.1415801691677350e-06  -3.8761709643777966e-06  -2.6020176575702457e-06  -1.3219073953634424e-06  -3.8641192373614226e-08  1.2449588638529451e-06  2.5260463150051733e-06  3.8017588732330225e-06  5.0692231338998485e-06  6.3255138063677082e-06  7.5672603295275134e-06  8.7895321535589472e-06  9.9833331916896868e-06  1.1130650761647223e-05  1.2194191190003811e-05  1.3096795123878944e-05  1.3681423415297014e-05  1.3633538370418512e-05  1.2332460334982794e-05  8.5678736815117242e-06  0.0000000000000000e+00  -8.8973899578429380e-06  0.0000000000000000e+00  -1.2783812993858935e-05  -1.4096804933162877e-05  -1.4103337096653095e-05  -1.3456449173290360e-05  -1.2488529518628702e-05  -1.1365784059564512e-05  -1.0169294134792772e-05  -8.9372446755618354e-06  -7.6868939437231338e-06  -6.4257060625248829e-06  -5.1568224876667016e-06  -3.8818219152258984e-06  -2.6019920035415028e-06  -1.3187272053474511e-06  -3.3561689849193387e-08  1.2518835336719272e-06  2.5359693781068473e-06  3.8171099533552027e-06  5.0938440979099264e-06  6.3648107563810844e-06  7.6283860145095386e-06  8.8814139220232389e-06  1.0116536063698677e-05  1.1316735259917117e-05  1.2444292871892265e-05  1.3418895238922969e-05  1.4075278891012733e-05  1.4081709336693571e-05  1.2784197310465180e-05  8.9096095669194868e-06  0.0000000000000000e+00  -9.1672236576415206e-06  0.0000000000000000e+00  -1.3137217953936781e-05  -1.4445355654889099e-05  -1.4408835511621052e-05  -1.3706340096449701e-05  -1.2683046241975107e-05  -1.1511047222003020e-05  -1.0273619447710694e-05  -9.0091700240752375e-06  -7.7342024561845575e-06  -6.4549976064270461e-06  -5.1733966570498881e-06  -3.8897193931252463e-06  -2.6041053035006317e-06  -1.3169186133857482e-06  -2.8755568210889622e-08  1.2596543604139552e-06  2.5475661722143125e-06  3.8343430239302308e-06  5.1195617721599511e-06  6.4030228052624760e-06  7.6843494715285315e-06  8.9616943215899611e-06  1.0228820706116009e-05  1.1469410758033493e-05  1.2645372872972985e-05  1.3673992029367540e-05  1.4383904437934921e-05  1.4430490684730472e-05  1.3134513318603494e-05  9.1744512669585991e-06  0.0000000000000000e+00  -9.3525802094315046e-06  0.0000000000000000e+00  -1.3377736584709602e-05  -1.4681029069880152e-05  -1.4614735770284229e-05  -1.3874894621818608e-05  -1.2814958310855666e-05  -1.1610646442063589e-05  -1.0346425414098404e-05  -9.0606967327853655e-06  -7.7693657574496092e-06  -6.4778977706132760e-06  -5.1872725614737389e-06  -3.8970058836255444e-06  -2.6065217669107869e-06  -1.3155608436239822e-06  -2.4163003296217219e-08  1.2674637781069443e-06  2.5591001915881231e-06  3.8506728090477000e-06  5.1423924240181144e-06  6.4347740083172396e-06  7.7282453753091517e-06  9.0217783243910017e-06  1.0309924493926978e-05  1.1576835934583621e-05  1.2784311594208058e-05  1.3848193331745007e-05  1.4593272885139077e-05  1.4666538033463029e-05  1.3371829199888406e-05  9.3544960751572477e-06  0.0000000000000000e+00  -9.4465001868578942e-06  0.0000000000000000e+00  -1.3495668394605683e-05  -1.4793248427503201e-05  -1.4710505431356376e-05  -1.3952108913348392e-05  -1.2875139006999301e-05  -1.1656512669168185e-05  -1.0380827376977071e-05  -9.0861192226640160e-06  -7.7878100453387625e-06  -6.4908530053790960e-06  -5.1957947264910775e-06  -3.9017983705824007e-06  -2.6080277491268419e-06  -1.3140352361424321e-06  -1.9724973654153464e-08  1.2748072422873736e-06  2.5694566668798803e-06  3.8642936493600751e-06  5.1597219305132974e-06  6.4565205716900660e-06  7.7554515002842146e-06  9.0558992676553892e-06  1.0352835903958165e-05  1.1630831192627890e-05  1.2851831722474937e-05  1.3931363478364421e-05  1.4692713142641741e-05  1.4779162823052455e-05  1.3486350957258182e-05  9.4427437432841721e-06  0.0000000000000000e+00  -9.4432358704229019e-06  0.0000000000000000e+00  -1.3483346109447319e-05  -1.4774177213566539e-05  -1.4688884892513033e-05  -1.3931609388242563e-05  -1.2858156099245463e-05  -1.1644166678371850e-05  -1.0373192981990230e-05  -9.0825898477224050e-06  -7.7873396176488433e-06  -6.4922266550555299e-06  -5.1977772474430141e-06  -3.9032790490623604e-06  -2.6081030786121414e-06  -1.3120741117692557e-06  -1.5403775070316590e-08  1.2814879928259255e-06  2.5781754809282851e-06  3.8744262875751691e-06  5.1703783686028231e-06  6.4665976927553812e-06  7.7637177661651072e-06  9.0610911797632485e-06  1.0353819072038361e-05  1.1626753110563604e-05  1.2842393476174142e-05  1.3916999229806598e-05  1.4674891802824583e-05  1.4760464032926275e-05  1.3470383974072522e-05  9.4334421853181373e-06  0.0000000000000000e+00  -9.3384405400348930e-06  0.0000000000000000e+00  -1.3335322064375520e-05  -1.4618791191788815e-05  -1.4545861054965654e-05  -1.3810488249240539e-05  -1.2762086111483208e-05  -1.1572435624343286e-05  -1.0322925653205791e-05  -9.0498585904569195e-06  -7.7679452082882871e-06  -6.4821143052976362e-06  -5.1933605028647632e-06  -3.9015745256617808e-06  -2.6068316636893547e-06  -1.3096985094585664e-06  -1.1151799143130322e-08  1.2876188377517250e-06  2.5854193600762022e-06  3.8812587093457390e-06  5.1745331010039309e-06  6.4651092710796512e-06  7.7529913542871619e-06  9.0370571882795738e-06  1.0312158826901093e-05  1.1563343805816608e-05  1.2753929515534497e-05  1.3802090766293681e-05  1.4535680536637374e-05  1.4605339419724316e-05  1.3318421900426028e-05  9.3222249072250017e-06  0.0000000000000000e+00  -9.1291345522919819e-06  0.0000000000000000e+00  -1.3048304080664949e-05  -1.4324758120429212e-05  -1.4280464407158477e-05  -1.3589007697384701e-05  -1.2588093579663709e-05  -1.1443007782034737e-05  -1.0231889695184528e-05  -8.9897677911911648e-06  -7.7312457283402917e-06  -6.4618699913121892e-06  -5.1835771314320410e-06  -3.8974103984906023e-06  -2.6046410332506740e-06  -1.3070587735661507e-06  -6.8546004811296412e-09  1.2935724383110764e-06  2.5918225519504388e-06  3.8856930121734965e-06  5.1733663442983167e-06  6.4535012419123924e-06  7.7249623817490054e-06  8.9856261170445833e-06  1.0229700532461045e-05  1.1442180865652013e-05  1.2587477842739622e-05  1.3586721849765815e-05  1.4273926101239480e-05  1.4311289214651486e-05  1.3027042212166429e-05  9.1060476191936281e-06  0.0000000000000000e+00  -8.8133768789394641e-06  0.0000000000000000e+00  -1.2620690804356521e-05  -1.3891903704022395e-05  -1.3894107779113189e-05  -1.3269818399928118e-05  -1.2339494012602474e-05  -1.1259358684905547e-05  -1.0103319694473878e-05  -8.9050550603940835e-06  -7.6794271725113398e-06  -6.4330826793366776e-06  -5.1695152599010734e-06  -3.8914403747927270e-06  -2.6018487968816052e-06  -1.3042019485640318e-06  -2.3321512802521317e-09  1.2997495226944199e-06  2.5980316764749010e-06  3.8886803473041794e-06  5.1682037369906905e-06  6.4335604059734780e-06  7.6819140701541436e-06  8.9095983635338860e-06  1.0109624283639838e-05  1.1266627381362612e-05  1.2346169930021053e-05  1.3273304432602980e-05  1.3890796512402497e-05  1.3877899675321136e-05  1.2594451812716833e-05  8.7828491970870357e-06  0.0000000000000000e+00  -8.3894953337495867e-06  0.0000000000000000e+00  -1.2051469560569105e-05  -1.3320856211288191e-05  -1.3388953659108965e-05  -1.2855979162574929e-05  -1.2019510591818329e-05  -1.1024262948572639e-05  -9.9392274802620773e-06  -8.7968602593759720e-06  -7.6128100289249885e-06  -6.3954836508136901e-06  -5.1505107112985669e-06  -3.8828657786402128e-06  -2.5977075136668065e-06  -1.3005855243405855e-06  2.6761136595389315e-09  1.3061182559210066e-06  2.6037874273030300e-06  3.8898587136562518e-06  5.1587706624242790e-06  6.4053011944960134e-06  7.6243883545423494e-06  8.8101842602692625e-06  9.9539111531082218e-06  1.1039308026048667e-05  1.2032957327955601e-05  1.2864568248433001e-05  1.3388065194645522e-05  1.3305392755411333e-05  1.2019260828746378e-05  8.3506756774832121e-06  0.0000000000000000e+00  -7.8545905778078163e-06  0.0000000000000000e+00  -1.1337911943206642e-05  -1.2610055729828729e-05  -1.2764218640778727e-05  -1.2346571885339931e-05  -1.1626311346781962e-05  -1.0734561173280268e-05  -9.7350710789208939e-06  -8.6595640359794718e-06  -7.5251686929194652e-06  -6.3427513946275525e-06  -5.1207175471205736e-06  -3.8667547330106955e-06  -2.5885913523067916e-06  -1.2941390228198410e-06  8.5450825423896410e-09  1.3113515108703085e-06  2.6061741914880407e-06  3.8849673534360362e-06  5.1398002921624204e-06  6.3629102466214204e-06  7.5465017147962480e-06  8.6819714600389113e-06  9.7580342653534149e-06  1.0756860762728425e-05  1.1645639597370414e-05  1.2359051179626632e-05  1.2764280570485339e-05  1.2591487639337141e-05  1.1298028725723053e-05  7.8060807670906316e-06  0.0000000000000000e+00  -7.2016833261022927e-06  0.0000000000000000e+00  -1.0470792815316955e-05  -1.1749193965597184e-05  -1.2007901203453103e-05  -1.1727047678737116e-05  -1.1142422069559671e-05  -1.0370169207077876e-05  -9.4689945442296992e-06  -8.4706252068916699e-06  -7.3944952374756663e-06  -6.2545867110267527e-06  -5.0625328183687088e-06  -3.8290669524610814e-06  -2.5646346150689966e-06  -1.2796067051362633e-06  1.5711263406386220e-08  1.3110548053658129e-06  2.5961684140529453e-06  3.8607501085097701e-06  5.0944239488723321e-06  6.2866904843182304e-06  7.4267354576915107e-06  8.5027043820289795e-06  9.5001778709724562e-06  1.0398996823492107e-05  1.1166234849351227e-05  1.1741426034610459e-05  1.2006475776971926e-05  1.1724796279256785e-05  1.0420459753261651e-05  7.1412284789447091e-06  0.0000000000000000e+00  -6.4141520250776757e-06  0.0000000000000000e+00  -9.4242946528125725e-06  -1.0704857376810955e-05  -1.1078723749195916e-05  -1.0948488419404766e-05  -1.0512626623929418e-05  -9.8717820061039380e-06  -9.0802746263901012e-06  -8.1706435027316813e-06  -7.1652078002977828e-06  -6.0813970124248765e-06  -4.9341693595607439e-06  -3.7371936875893741e-06  -2.5034515145287712e-06  -1.2454821374013891e-06  2.4464021620900184e-08  1.2943013732146081e-06  2.5519452797858658e-06  3.7851498733794212e-06  4.9813457012997206e-06  6.1275031787298109e-06  7.2098395680204300e-06  8.2131713938492635e-06  9.1196236051134150e-06  9.9061292727916931e-06  1.0538934932982054e-05  1.0961876212054231e-05  1.1072203636602144e-05  1.0670598251433982e-05  9.3594509740078759e-06  6.3384096099884864e-06  0.0000000000000000e+00  -5.4544065139225426e-06  0.0000000000000000e+00  -8.1342377095076449e-06  -9.3892563820517474e-06  -9.8676054135911047e-06  -9.8846681340081284e-06  -9.5993402407072861e-06  -9.0968888379060840e-06  -8.4276835208429961e-06  -7.6252014686641095e-06  -6.7143996270556662e-06  -5.7155951490334350e-06  -4.6463387601457327e-06  -3.5224347777839360e-06  -2.3585312234095428e-06  -1.1684939604748397e-06  3.4339633814342671e-08  1.2368977569398835e-06  2.4261090937367795e-06  3.5886162518581515e-06  4.7105090757740950e-06  5.7770433768771752e-06  6.7722783886038408e-06  7.6783964350873925e-06  8.4746080367211893e-06  9.1352300327778734e-06  9.6255909183172233e-06  9.8935044950267850e-06  9.8516533782402119e-06  9.3404418898094020e-06  8.0502665814123242e-06  5.3594576320435093e-06  0.0000000000000000e+00  -4.2385807935883106e-06  0.0000000000000000e+00  -6.4486884795244015e-06  -7.5911300663467986e-06  -8.1156387473513365e-06  -8.2438648933048078e-06  -8.0935927435748604e-06  -7.7337092641923526e-06  -7.2090756548935674e-06  -6.5520272130417084e-06  -5.7878315289400769e-06  -4.9373664618155730e-06  -4.0185473193698882e-06  -3.0472243611708622e-06  -2.0378028578874304e-06  -1.0036716273636676e-06  4.2436643224987773e-08  1.0881191567506144e-06  2.1209617383445040e-06  3.1281967210709562e-06  4.0963491648932997e-06  5.0108857791082236e-06  5.8557581620976709e-06  6.6127389085833816e-06  7.2604627481989589e-06  7.7729394425129033e-06  8.1167071206292457e-06  8.2452536825810282e-06  8.0878822568099220e-06  7.5263475534378841e-06  6.3451929449565523e-06  4.1239638264480327e-06  0.0000000000000000e+00  -2.5750975635783523e-06  0.0000000000000000e+00  -4.0131137547852439e-06  -4.8241580656227286e-06  -5.2429789000341394e-06  -5.3914048063254805e-06  -5.3402107380937554e-06  -5.1349474264032051e-06  -4.8076562360227265e-06  -4.3825387592568734e-06  -3.8788534095143787e-06  -3.3124870226098525e-06  -2.6969141599078848e-06  -2.0438656729382317e-06  -1.3638211414400094e-06  -6.6639012415397423e-07  3.9379635041534352e-08  7.4471133476343765e-07  1.4408162329353173e-06  2.1185998628428076e-06  2.7683645033153840e-06  3.3794866259237768e-06  3.9400343697408574e-06  4.4362330112046800e-06  4.8517598817986245e-06  5.1667519226715744e-06  5.3561039205835041e-06  5.3865028474674621e-06  5.2110215913666965e-06  4.7584871946717752e-06  3.9118266671562884e-06  2.4615833706300645e-06  0.0000000000000000e+00  0.0000000000000000e+00  0.0000000000000000e+00  0.0000000000000000e+00  0.0000000000000000e+00  0.0000000000000000e+00  0.0000000000000000e+00  0.0000000000000000e+00  0.0000000000000000e+00  0.0000000000000000e+00  0.0000000000000000e+00  0.0000000000000000e+00  0.0000000000000000e+00  0.0000000000000000e+00  0.0000000000000000e+00  0.0000000000000000e+00  0.0000000000000000e+00  0.0000000000000000e+00  0.0000000000000000e+00  0.0000000000000000e+00  0.0000000000000000e+00  0.0000000000000000e+00  0.0000000000000000e+00  0.000000