<?xml version="1.0"?>
<VTKFile type="UnstructuredGrid"  version="0.1"  >
<UnstructuredGrid>
<Piece  NumberOfPoints="759" NumberOfCells="1408">
<Points>
<DataArray  type="Float64"  NumberOfComponents="3"  format="ascii">0 0.46875 0  0.03125 0.46875 0  0.03125 0.515625 0  0 0.515625 0  0.0625 0.46875 0  0.0625 0.515625 0  0.09375 0.46875 0  0.09375 0.515625 0  0.125 0.46875 0  0.125 0.515625 0  0.15625 0.46875 0  0.15625 0.515625 0  0.1875 0.46875 0  0.1875 0.515625 0  0.21875 0.46875 0  0.21875 0.515625 0  0.25 0.46875 0  0.25 0.515625 0  0.28125 0.46875 0  0.28125 0.515625 0  0.3125 0.46875 0  0.3125 0.515625 0  0.34375 0.46875 0  0.34375 0.515625 0  0.375 0.46875 0  0.375 0.515625 0  0.40625 0.46875 0  0.40625 0.515625 0  0.4375 0.46875 0  0.4375 0.515625 0  0.46875 0.46875 0  0.46875 0.515625 0  0.5 0.46875 0  0.5 0.515625 0  0.53125 0.46875 0  0.53125 0.515625 0  0.5625 0.46875 0  0.5625 0.515625 0  0.59375 0.46875 0  0.59375 0.515625 0  0.625 0.46875 0  0.625 0.515625 0  0.65625 0.46875 0  0.65625 0.515625 0  0.6875 0.46875 0  0.6875 0.515625 0  0.71875 0.46875 0  0.71875 0.515625 0  0.75 0.46875 0  0.75 0.515625 0  0.78125 0.46875 0  0.78125 0.515625 0  0.8125 0.46875 0  0.8125 0.515625 0  0.84375 0.46875 0  0.84375 0.515625 0  0.875 0.46875 0  0.875 0.515625 0  0.90625 0.46875 0  0.90625 0.515625 0  0.9375 0.46875 0  0.9375 0.515625 0  0.96875 0.46875 0  0.96875 0.515625 0  1 0.46875 0  1 0.515625 0  0.03125 0.5625 0  0 0.5625 0  0.0625 0.5625 0  0.09375 0.5625 0  0.125 0.5625 0  0.15625 0.5625 0  0.1875 0.5625 0  0.21875 0.5625 0  0.25 0.5625 0  0.28125 0.5625 0  0.3125 0.5625 0  0.34375 0.5625 0  0.375 0.5625 0  0.40625 0.5625 0  0.4375 0.5625 0  0.46875 0.5625 0  0.5 0.5625 0  0.53125 0.5625 0  0.5625 0.5625 0  0.59375 0.5625 0  0.625 0.5625 0  0.65625 0.5625 0  0.6875 0.5625 0  0.71875 0.5625 0  0.75 0.5625 0  0.78125 0.5625 0  0.8125 0.5625 0  0.84375 0.5625 0  0.875 0.5625 0  0.90625 0.5625 0  0.9375 0.5625 0  0.96875 0.5625 0  1 0.5625 0  0.03125 0.609375 0  0 0.609375 0  0.0625 0.609375 0  0.09375 0.609375 0  0.125 0.609375 0  0.15625 0.609375 0  0.1875 0.609375 0  0.21875 0.609375 0  0.25 0.609375 0  0.28125 0.609375 0  0.3125 0.609375 0  0.34375 0.609375 0  0.375 0.609375 0  0.40625 0.609375 0  0.4375 0.609375 0  0.46875 0.609375 0  0.5 0.609375 0  0.53125 0.609375 0  0.5625 0.609375 0  0.59375 0.609375 0  0.625 0.609375 0  0.65625 0.609375 0  0.6875 0.609375 0  0.71875 0.609375 0  0.75 0.609375 0  0.78125 0.609375 0  0.8125 0.609375 0  0.84375 0.609375 0  0.875 0.609375 0  0.90625 0.609375 0  0.9375 0.609375 0  0.96875 0.609375 0  1 0.609375 0  0.03125 0.65625 0  0 0.65625 0  0.0625 0.65625 0  0.09375 0.65625 0  0.125 0.65625 0  0.15625 0.65625 0  0.1875 0.65625 0  0.21875 0.65625 0  0.25 0.65625 0  0.28125 0.65625 0  0.3125 0.65625 0  0.34375 0.65625 0  0.375 0.65625 0  0.40625 0.65625 0  0.4375 0.65625 0  0.46875 0.65625 0  0.5 0.65625 0  0.53125 0.65625 0  0.5625 0.65625 0  0.59375 0.65625 0  0.625 0.65625 0  0.65625 0.65625 0  0.6875 0.65625 0  0.71875 0.65625 0  0.75 0.65625 0  0.78125 0.65625 0  0.8125 0.65625 0  0.84375 0.65625 0  0.875 0.65625 0  0.90625 0.65625 0  0.9375 0.65625 0  0.96875 0.65625 0  1 0.65625 0  0.03125 0.703125 0  0 0.703125 0  0.0625 0.703125 0  0.09375 0.703125 0  0.125 0.703125 0  0.15625 0.703125 0  0.1875 0.703125 0  0.21875 0.703125 0  0.25 0.703125 0  0.28125 0.703125 0  0.3125 0.703125 0  0.34375 0.703125 0  0.375 0.703125 0  0.40625 0.703125 0  0.4375 0.703125 0  0.46875 0.703125 0  0.5 0.703125 0  0.53125 0.703125 0  0.5625 0.703125 0  0.59375 0.703125 0  0.625 0.703125 0  0.65625 0.703125 0  0.6875 0.703125 0  0.71875 0.703125 0  0.75 0.703125 0  0.78125 0.703125 0  0.8125 0.703125 0  0.84375 0.703125 0  0.875 0.703125 0  0.90625 0.703125 0  0.9375 0.703125 0  0.96875 0.703125 0  1 0.703125 0  0.03125 0.75 0  0 0.75 0  0.0625 0.75 0  0.09375 0.75 0  0.125 0.75 0  0.15625 0.75 0  0.1875 0.75 0  0.21875 0.75 0  0.25 0.75 0  0.28125 0.75 0  0.3125 0.75 0  0.34375 0.75 0  0.375 0.75 0  0.40625 0.75 0  0.4375 0.75 0  0.46875 0.75 0  0.5 0.75 0  0.53125 0.75 0  0.5625 0.75 0  0.59375 0.75 0  0.625 0.75 0  0.65625 0.75 0  0.6875 0.75 0  0.71875 0.75 0  0.75 0.75 0  0.78125 0.75 0  0.8125 0.75 0  0.84375 0.75 0  0.875 0.75 0  0.90625 0.75 0  0.9375 0.75 0  0.96875 0.75 0  1 0.75 0  0.03125 0.796875 0  0 0.796875 0  0.0625 0.796875 0  0.09375 0.796875 0  0.125 0.796875 0  0.15625 0.796875 0  0.1875 0.796875 0  0.21875 0.796875 0  0.25 0.796875 0  0.28125 0.796875 0  0.3125 0.796875 0  0.34375 0.796875 0  0.375 0.796875 0  0.40625 0.796875 0  0.4375 0.796875 0  0.46875 0.796875 0  0.5 0.796875 0  0.53125 0.796875 0  0.5625 0.796875 0  0.59375 0.796875 0  0.625 0.796875 0  0.65625 0.796875 0  0.6875 0.796875 0  0.71875 0.796875 0  0.75 0.796875 0  0.78125 0.796875 0  0.8125 0.796875 0  0.84375 0.796875 0  0.875 0.796875 0  0.90625 0.796875 0  0.9375 0.796875 0  0.96875 0.796875 0  1 0.796875 0  0.03125 0.84375 0  0 0.84375 0  0.0625 0.84375 0  0.09375 0.84375 0  0.125 0.84375 0  0.15625 0.84375 0  0.1875 0.84375 0  0.21875 0.84375 0  0.25 0.84375 0  0.28125 0.84375 0  0.3125 0.84375 0  0.34375 0.84375 0  0.375 0.84375 0  0.40625 0.84375 0  0.4375 0.84375 0  0.46875 0.84375 0  0.5 0.84375 0  0.53125 0.84375 0  0.5625 0.84375 0  0.59375 0.84375 0  0.625 0.84375 0  0.65625 0.84375 0  0.6875 0.84375 0  0.71875 0.84375 0  0.75 0.84375 0  0.78125 0.84375 0  0.8125 0.84375 0  0.84375 0.84375 0  0.875 0.84375 0  0.90625 0.84375 0  0.9375 0.84375 0  0.96875 0.84375 0  1 0.84375 0  0.03125 0.890625 0  0 0.890625 0  0.0625 0.890625 0  0.09375 0.890625 0  0.125 0.890625 0  0.15625 0.890625 0  0.1875 0.890625 0  0.21875 0.890625 0  0.25 0.890625 0  0.28125 0.890625 0  0.3125 0.890625 0  0.34375 0.890625 0  0.375 0.890625 0  0.40625 0.890625 0  0.4375 0.890625 0  0.46875 0.890625 0  0.5 0.890625 0  0.53125 0.890625 0  0.5625 0.890625 0  0.59375 0.890625 0  0.625 0.890625 0  0.65625 0.890625 0  0.6875 0.890625 0  0.71875 0.890625 0  0.75 0.890625 0  0.78125 0.890625 0  0.8125 0.890625 0  0.84375 0.890625 0  0.875 0.890625 0  0.90625 0.890625 0  0.9375 0.890625 0  0.96875 0.890625 0  1 0.890625 0  0.03125 0.9375 0  0 0.9375 0  0.0625 0.9375 0  0.09375 0.9375 0  0.125 0.9375 0  0.15625 0.9375 0  0.1875 0.9375 0  0.21875 0.9375 0  0.25 0.9375 0  0.28125 0.9375 0  0.3125 0.9375 0  0.34375 0.9375 0  0.375 0.9375 0  0.40625 0.9375 0  0.4375 0.9375 0  0.46875 0.9375 0  0.5 0.9375 0  0.53125 0.9375 0  0.5625 0.9375 0  0.59375 0.9375 0  0.625 0.9375 0  0.65625 0.9375 0  0.6875 0.9375 0  0.71875 0.9375 0  0.75 0.9375 0  0.78125 0.9375 0  0.8125 0.9375 0  0.84375 0.9375 0  0.875 0.9375 0  0.90625 0.9375 0  0.9375 0.9375 0  0.96875 0.9375 0  1 0.9375 0  0.03125 0.984375 0  0 0.984375 0  0.0625 0.984375 0  0.09375 0.984375 0  0.125 0.984375 0  0.15625 0.984375 0  0.1875 0.984375 0  0.21875 0.984375 0  0.25 0.984375 0  0.28125 0.984375 0  0.3125 0.984375 0  0.34375 0.984375 0  0.375 0.984375 0  0.40625 0.984375 0  0.4375 0.984375 0  0.46875 0.984375 0  0.5 0.984375 0  0.53125 0.984375 0  0.5625 0.984375 0  0.59375 0.984375 0  0.625 0.984375 0  0.65625 0.984375 0  0.6875 0.984375 0  0.71875 0.984375 0  0.75 0.984375 0  0.78125 0.984375 0  0.8125 0.984375 0  0.84375 0.984375 0  0.875 0.984375 0  0.90625 0.984375 0  0.9375 0.984375 0  0.96875 0.984375 0  1 0.984375 0  0.03125 1.03125 0  0 1.03125 0  0.0625 1.03125 0  0.09375 1.03125 0  0.125 1.03125 0  0.15625 1.03125 0  0.1875 1.03125 0  0.21875 1.03125 0  0.25 1.03125 0  0.28125 1.03125 0  0.3125 1.03125 0  0.34375 1.03125 0  0.375 1.03125 0  0.40625 1.03125 0  0.4375 1.03125 0  0.46875 1.03125 0  0.5 1.03125 0  0.53125 1.03125 0  0.5625 1.03125 0  0.59375 1.03125 0  0.625 1.03125 0  0.65625 1.03125 0  0.6875 1.03125 0  0.71875 1.03125 0  0.75 1.03125 0  0.78125 1.03125 0  0.8125 1.03125 0  0.84375 1.03125 0  0.875 1.03125 0  0.90625 1.03125 0  0.9375 1.03125 0  0.96875 1.03125 0  1 1.03125 0  0.03125 1.078125 0  0 1.078125 0  0.0625 1.078125 0  0.09375 1.078125 0  0.125 1.078125 0  0.15625 1.078125 0  0.1875 1.078125 0  0.21875 1.078125 0  0.25 1.078125 0  0.28125 1.078125 0  0.3125 1.078125 0  0.34375 1.078125 0  0.375 1.078125 0  0.40625 1.078125 0  0.4375 1.078125 0  0.46875 1.078125 0  0.5 1.078125 0  0.53125 1.078125 0  0.5625 1.078125 0  0.59375 1.078125 0  0.625 1.078125 0  0.65625 1.078125 0  0.6875 1.078125 0  0.71875 1.078125 0  0.75 1.078125 0  0.78125 1.078125 0  0.8125 1.078125 0  0.84375 1.078125 0  0.875 1.078125 0  0.90625 1.078125 0  0.9375 1.078125 0  0.96875 1.078125 0  1 1.078125 0  0.03125 1.125 0  0 1.125 0  0.0625 1.125 0  0.09375 1.125 0  0.125 1.125 0  0.15625 1.125 0  0.1875 1.125 0  0.21875 1.125 0  0.25 1.125 0  0.28125 1.125 0  0.3125 1.125 0  0.34375 1.125 0  0.375 1.125 0  0.40625 1.125 0  0.4375 1.125 0  0.46875 1.125 0  0.5 1.125 0  0.53125 1.125 0  0.5625 1.125 0  0.59375 1.125 0  0.625 1.125 0  0.65625 1.125 0  0.6875 1.125 0  0.71875 1.125 0  0.75 1.125 0  0.78125 1.125 0  0.8125 1.125 0  0.84375 1.125 0  0.875 1.125 0  0.90625 1.125 0  0.9375 1.125 0  0.96875 1.125 0  1 1.125 0  0.03125 1.171875 0  0 1.171875 0  0.0625 1.171875 0  0.09375 1.171875 0  0.125 1.171875 0  0.15625 1.171875 0  0.1875 1.171875 0  0.21875 1.171875 0  0.25 1.171875 0  0.28125 1.171875 0  0.3125 1.171875 0  0.34375 1.171875 0  0.375 1.171875 0  0.40625 1.171875 0  0.4375 1.171875 0  0.46875 1.171875 0  0.5 1.171875 0  0.53125 1.171875 0  0.5625 1.171875 0  0.59375 1.171875 0  0.625 1.171875 0  0.65625 1.171875 0  0.6875 1.171875 0  0.71875 1.171875 0  0.75 1.171875 0  0.78125 1.171875 0  0.8125 1.171875 0  0.84375 1.171875 0  0.875 1.171875 0  0.90625 1.171875 0  0.9375 1.171875 0  0.96875 1.171875 0  1 1.171875 0  0.03125 1.21875 0  0 1.21875 0  0.0625 1.21875 0  0.09375 1.21875 0  0.125 1.21875 0  0.15625 1.21875 0  0.1875 1.21875 0  0.21875 1.21875 0  0.25 1.21875 0  0.28125 1.21875 0  0.3125 1.21875 0  0.34375 1.21875 0  0.375 1.21875 0  0.40625 1.21875 0  0.4375 1.21875 0  0.46875 1.21875 0  0.5 1.21875 0  0.53125 1.21875 0  0.5
[...]
<PointData  Scalars="p"> 
<DataArray  type="Float64"  Name="p"  format="ascii">0.0000000000000000e+00  -7.3446374700426942e-03  -7.7610833714483003e-03  0.0000000000000000e+00  -1.2791795622768965e-02  -1.3497955957860557e-02  -1.6641166695339688e-02  -1.7552320350342134e-02  -1.9159819871218762e-02  -2.0210739438073770e-02  -2.0577088223549020e-02  -2.1713533953944528e-02  -2.1086442325524233e-02  -2.2261702483070266e-02  -2.0849664150324011e-02  -2.2022872773123016e-02  -2.0001440488981687e-02  -2.1136792055593160e-02  -1.8653869699748072e-02  -1.9720060937024095e-02  -1.6900469234515266e-02  -1.7870449309465963e-02  -1.4819803420285417e-02  -1.5670490370594887e-02  -1.2478594660864277e-02  -1.3190778119520977e-02  -9.9344792859892665e-03  -1.0492650925610076e-02  -7.2383550768676495e-03  -7.6306815447677433e-03  -4.4365053837488733e-03  -4.6547503713572922e-03  -1.5724475429406742e-03  -1.6120115732760078e-03  1.3113403455386472e-03  1.4514032597346021e-03  4.1718022276541079e-03  4.4886697698720323e-03  6.9636843746651985e-03  7.4506590687061650e-03  9.6379162836767451e-03  1.0284239097286598e-02  1.2139878535893066e-02  1.2930556750681103e-02  1.4407530784518638e-02  1.5323103242005524e-02  1.6369313144994280e-02  1.7385643668095085e-02  1.7941801003305734e-02  1.9029819377900711e-02  1.9026973352478854e-02  2.0152463628782920e-02  1.9509109246764050e-02  2.0632442813073026e-02  1.9251169166418031e-02  2.0327118510145164e-02  1.8090712148375654e-02  1.9068262992564318e-02  1.5835261441055445e-02  1.6657727708693195e-02  1.2256991269595337e-02  1.2862961901542720e-02  7.0860314715701228e-03  7.4133939612287605e-03  0.0000000000000000e+00  0.0000000000000000e+00  -8.7616484271230161e-03  0.0000000000000000e+00  -1.5248339568754798e-02  -1.9847913057224491e-02  -2.2881503354326951e-02  -2.4615547361842485e-02  -2.5271312125495726e-02  -2.5033071395209792e-02  -2.4054576536721755e-02  -2.2464914291581182e-02  -2.0373004166188948e-02  -1.7871862660409167e-02  -1.5041805409739005e-02  -1.1953609588953243e-02  -8.6708583163115222e-03  -5.2524013290223348e-03  -1.7542097321299440e-03  1.7686042089917202e-03  5.2601240456891891e-03  8.6617562791643371e-03  1.1910560214661177e-02  1.4937302442900268e-02  1.7664555221074633e-02  2.0004405642957829e-02  2.1856098246389521e-02  2.3103090064275827e-02  2.3609849120643928e-02  2.3217890079248658e-02  2.1741345682411182e-02  1.8961682122775436e-02  1.4621854275796086e-02  8.4195945335265761e-03  0.0000000000000000e+00  -1.0288999606694256e-02  0.0000000000000000e+00  -1.7902689701118715e-02  -2.3307384360869685e-02  -2.6882719123540989e-02  -2.8939375824291579e-02  -2.9733280466444446e-02  -2.9476267853123430e-02  -2.8345169482795578e-02  -2.6488439019554361e-02  -2.4032288769389037e-02  -2.1084899992862172e-02  -1.7740828643627082e-02  -1.4083804209992454e-02  -1.0190053501146695e-02  -6.1303634551298997e-03  -1.9727578448866566e-03  2.2157998479131035e-03  6.3670532383810850e-03  1.0409792238973054e-02  1.4267600910426207e-02  1.7857050600085765e-02  2.1085259826401193e-02  2.3847692264662431e-02  2.6025203702652822e-02  2.7481046060184023e-02  2.8056821033403189e-02  2.7568025694099586e-02  2.5798089328185787e-02  2.2491429281288434e-02  1.7344283104171163e-02  9.9932615661475713e-03  0.0000000000000000e+00  -1.2333331187823149e-02  0.0000000000000000e+00  -2.1431020508394894e-02  -2.7874848348216789e-02  -3.2130926406506784e-02  -3.4575975090552873e-02  -3.5516802651942805e-02  -3.5205868592144605e-02  -3.3852474247514371e-02  -3.1632475422576543e-02  -2.8694790000060585e-02  -2.5167869166832599e-02  -2.1163615832220511e-02  -1.6782095746068967e-02  -1.2114016379306427e-02  -7.2445298080660442e-03  -2.2550195880820852e-03  2.7736324783691254e-03  7.7594539599643983e-03  1.2616352852471587e-02  1.7252439192531766e-02  2.1567028516825380e-02  2.5448567666969197e-02  2.8771296409708286e-02  3.1392413113232688e-02  3.3147764890162405e-02  3.3847409825686764e-02  3.3269272357927288e-02  3.1151671487213487e-02  2.7183063425860705e-02  2.0989030736848092e-02  1.2114473811879248e-02  0.0000000000000000e+00  -1.4921310113308371e-02  0.0000000000000000e+00  -2.5872238139578327e-02  -3.3590326527081715e-02  -3.8659931008461247e-02  -4.1548063066937133e-02  -4.2631770079998819e-02  -4.2218383713188298e-02  -4.0561484181622372e-02  -3.7872383154619091e-02  -3.4329913271078483e-02  -3.0086962175596463e-02  -2.5277161781645276e-02  -2.0018662132627315e-02  -1.4419328185789096e-02  -8.5790711486992844e-03  -2.5944118247503752e-03  3.4399058669402458e-03  9.4266044936423387e-03  1.5264355627093934e-02  2.0843637542274831e-02  2.6044883777221327e-02  3.0734263856271486e-02  3.4760951488675230e-02  3.7952294189165903e-02  4.0109401504966981e-02  4.1000424915255303e-02  4.0352970904746592e-02  3.7843317410351247e-02  3.3082868618893528e-02  2.5599482698302603e-02  1.4812688048075732e-02  0.0000000000000000e+00  -1.8106324798517974e-02  0.0000000000000000e+00  -3.1311304088164203e-02  -4.0554247606405691e-02  -4.6573516938532490e-02  -4.9954648316815037e-02  -5.1166612133982166e-02  -5.0588991486339649e-02  -4.8532454815718884e-02  -4.5254347932373054e-02  -4.0970382568454478e-02  -3.5864135588737599e-02  -3.0093974169082483e-02  -2.3799699254653469e-02  -1.7106733959881684e-02  -1.0131800759954342e-02  -2.9855183968313407e-03  4.2220748086371426e-03  1.1379690810142982e-02  1.8369119851678849e-02  2.5063464903611121e-02  3.1321453177020599e-02  3.6984853739939517e-02  4.1872544497103786e-02  4.5776154847638209e-02  4.8452813160885316e-02  4.9617449027495097e-02  4.8931927614111637e-02  4.5991279349700605e-02  4.0305106253653411e-02  3.1272662551709067e-02  1.8149110861487440e-02  0.0000000000000000e+00  -2.1961711000223171e-02  0.0000000000000000e+00  -3.7865757853698785e-02  -4.8906703515490771e-02  -5.6018550460942257e-02  -5.9938010820199658e-02  -6.1251630980465523e-02  -6.0431320462834733e-02  -5.7860518097761847e-02  -5.3854393666857861e-02  -4.8674648559610650e-02  -4.2541515416719002e-02  -3.5642907588282965e-02  -2.8142084602021139e-02  -2.0184304697125535e-02  -1.1902118004129403e-02  -3.4214062204119310e-03  5.1348905211309869e-03  1.3640342390544295e-02  2.1962074109653253e-02  2.9953765377139938e-02  3.7452595733770210e-02  4.4271777263690630e-02  5.0196043163638140e-02  5.4973368560656218e-02  5.8307229452283671e-02  5.9845382192529203e-02  5.9166296281157882e-02  5.5760812639500036e-02  4.9007846241651769e-02  3.8141620776931666e-02  2.2207110015211834e-02  0.0000000000000000e+00  -2.6576875765335045e-02  0.0000000000000000e+00  -4.5677691868501603e-02  -5.8815159748159110e-02  -6.7167998901737691e-02  -7.1662725168041133e-02  -7.3034044591862704e-02  -7.1870226713118282e-02  -6.8646271232390726e-02  -6.3749388908302729e-02  -5.7497788663676101e-02  -5.0155674567029587e-02  -4.1945034399108710e-02  -3.3055323221515789e-02  -2.3651952569310238e-02  -1.3883549267788160e-02  -3.8889511962822004e-03  6.1963718516973585e-03  1.6234115626169939e-02  2.6076250640899891e-02  3.5559352440319873e-02  4.4496474295790713e-02  5.2671204940387538e-02  5.9827895676509674e-02  6.5663743161274019e-02  6.9816345161817506e-02  7.1850623314469911e-02  7.1240330273090860e-02  6.7344945305372300e-02  5.9378112215859834e-02  4.6365527668276882e-02  2.7087266316908738e-02  0.0000000000000000e+00  -3.2055654625443290e-02  0.0000000000000000e+00  -5.4909399807332324e-02  -7.0466395103124455e-02  -8.0208866189966394e-02  -8.5299343281098852e-02  -8.6658161567391798e-02  -8.5018876694560042e-02  -8.0971343271465337e-02  -7.4991570511322755e-02  -6.7467138926358541e-02  -5.8714122689269024e-02  -4.8993813641485334e-02  -3.8523727982617870e-02  -2.7489562615942452e-02  -1.6054311469136030e-02  -4.3672007816192146e-03  7.4271209909273286e-03  1.9181292502500870e-02  3.0735415784086614e-02  4.1909645306988291e-02  5.2494347127164533e-02  6.2240001813205277e-02  7.0847182299936501e-02  7.7952365332698656e-02  8.3115084732425418e-02  8.5797823829208503e-02  8.5344858679653954e-02  8.0950914116344669e-02  7.1622699511616955e-02  5.6124442483318084e-02  3.2905401406154618e-02  0.0000000000000000e+00  -3.8515572643060068e-02  0.0000000000000000e+00  -6.5739610698307416e-02  -8.4058726241147214e-02  -9.5328964125059715e-02  -1.0100655705863502e-01  -1.0224254584404588e-01  -9.9953269730977193e-02  -9.4870394947007677e-02  -8.7581038722458635e-02  -7.8555180455008450e-02  -6.8171504664967159e-02  -5.6733860150321287e-02  -4.4490312801985205e-02  -3.1644555044849185e-02  -1.8371008953265575e-02  -4.8249873110777115e-03  8.8455504494629050e-03  2.2488509509640594e-02  3.5937862509617564e-02  4.9000406889989898e-02  6.1445486039799914e-02  7.2990695576987549e-02  8.3286876171762544e-02  9.1902793341603589e-02  9.8302993061024607e-02  1.0182707206624225e-01  1.0165777025560455e-01  9.6785666398640960e-02  8.5958143083768215e-02  6.7613815236904323e-02  3.9790371591242692e-02  0.0000000000000000e+00  -4.6086809839828692e-02  0.0000000000000000e+00  -7.8358800080053137e-02  -9.9790416797252757e-02  -1.1269881168015433e-01  -1.1890491297674309e-01  -1.1984924388713816e-01  -1.1667606535291396e-01  -1.1029519245031011e-01  -1.0142849672309376e-01  -9.0646943283072934e-02  -7.8399146515437404e-02  -6.5037603395051269e-02  -5.0838127000266221e-02  -3.6020634245597982e-02  -2.0763729458091011e-02  -5.2223866207982989e-03  1.0459817456542845e-02  2.6134748098214654e-02  4.1636774570598278e-02  5.6767131510006778e-02  7.1277932670994512e-02  8.4855135401014983e-02  9.7098217724305769e-02  1.0749729074363039e-01  1.1540797585901652e-01  1.2001865436492197e-01  1.2031534424408538e-01  1.1503293143590668e-01  1.0259603572621583e-01  8.1036472332006781e-02  4.7881721676614718e-02  0.0000000000000000e+00  -5.4910788816803037e-02  0.0000000000000000e+00  -9.2960487109332274e-02  -1.1784113703234909e-01  -1.3244062681043556e-01  -1.3903660942216833e-01  -1.3943439360396301e-01  -1.3506547478409836e-01  -1.2706098493194323e-01  -1.1630790104922552e-01  -1.0349502817735916e-01  -8.9150611582031622e-02  -7.3675627484819622e-02  -5.7371559305772431e-02  -4.0465630494537018e-02  -2.3133075271822581e-02  -5.5161619007132968e-03  1.2255525639635036e-02  3.0050398315271301e-02  4.7713337200310187e-02  6.5050534169547328e-02  8.1805607559198509e-02  9.7637481193353748e-02  1.1209430027727013e-01  1.2458136501977612e-01  1.3432698557555520e-01  1.4034088407856488e-01  1.4136561834308142e-01  1.3581908605452606e-01  1.2171998826576051e-01  9.6591411771681027e-02  5.7326162297839628e-02  0.0000000000000000e+00  -6.5136386469817911e-02  0.0000000000000000e+00  -1.0972469723944864e-01  -1.3833690904770374e-01  -1.5457471603207798e-01  -1.6129564883386252e-01  -1.6077001533547566e-01  -1.5479297098629152e-01  -1.4476999516618044e-01  -1.3178606053301040e-01  -1.1666386391899587e-01  -1.0001565001233217e-01  -8.2286605862305892e-02  -6.3794859239627716e-02  -4.4763275137034972e-02  -2.5349129552443506e-02  -5.6692718763033615e-03  1.4178189158409233e-02  3.4090074118407476e-02  5.3939682348043659e-02  7.3549966075760559e-02  9.2670415888924315e-02  1.1094424800072750e-01  1.2787294109361549e-01  1.4277604615509232e-01  1.5474004724143228e-01  1.6256396226829639e-01  1.6469473342709409e-01  1.5915292524048946e-01  1.4344555895096919e-01  1.1445194427511511e-01  6.8270643446793719e-02  0.0000000000000000e+00  -7.6912668261020847e-02  0.0000000000000000e+00  -1.2878666003169342e-01  -1.6128634199797734e-01  -1.7892465666479815e-01  -1.8531106616813578e-01  -1.8331727370484710e-01  -1.7519978086565349e-01  -1.6269915767987914e-01  -1.4712891438459696e-01  -1.2945502686839724e-01  -1.1036697431991141e-01  -9.0341477568980297e-02  -6.9694281436742486e-02  -4.8626110224608395e-02  -2.7258322847781864e-02  -5.6632478818397676e-03  1.6107777749574444e-02  3.8000641073470551e-02  5.9931926672947715e-02  8.1763101949579364e-02  1.0326697276989689e-01  1.2409041672458249e-01  1.4370558068465700e-01  1.6135249458962869e-01  1.7597152019362114e-01  1.8612254233370201e-01  1.8989740125550511e-01  1.8482214201039648e-01  1.6774880573724005e-01  1.3473023209429782e-01  8.0853132326944258e-02  0.0000000000000000e+00  -9.0371795902432536e-02  0.0000000000000000e+00  -1.5017113640259819e-01  -1.8645544556599672e-01  -2.0494265378704940e-01  -2.1024496464896389e-01  -2.0602262286464487e-01  -1.9511120514869845e-01  -1.7964558663813229e-01  -1.6118328875680449e-01  -1.4082211358322891e-01  -1.1930516411175633e-01  -9.7110337460594665e-02  -7.4523491818424367e-02  -5.1696037321960028e-02  -2.8691332909784300e-02  -5.5191432962729365e-03  1.7835054919638146e-02  4.1382413135685664e-02  6.5103801676622608e-02  8.8919712185993871e-02  1.1265424760105809e-01  1.3598624747124974e-01  1.5838922241666911e-01  1.7905237229883844e-01  1.9678343296758738e-01  2.0989346481597557e-01  2.1606455485417644e-01  2.1221043313771648e-01  1.9433812394661718e-01  1.5740909116351687e-01  9.5184373209193290e-02  0.0000000000000000e+00  -1.0558541099600539e-01  0.0000000000000000e+00  -1.7364653729045207e-01  -2.1311176998159195e-01  -2.3137804847747387e-01  -2.3443988441330954e-01  -2.2699104485578850e-01  -2.1256617359410140e-01  -1.9372298467320873e-01  -1.7223679627722319e-01  -1.4928641214817973e-01  -1.2561269797541980e-01  -1.0164529978890588e-01  -7.7600232165361951e-02  -5.3549820697139087e-02  -2.9476255761465703e-02  -5.3104233271238990e-03  1.9040719762675708e-02  4.3667050566059983e-02  6.8629859226076589e-02  9.3931480224529518e-02  1.1947604381931168e-01  1.4501621489149219e-01  1.7007698257939208e-01  1.9385522760452406e-01  2.1508259641722258e-01  2.3185258429511049e-01  2.4141595884221825e-01  2.3995859665161021e-01  2.2239336584056088e-01  1.8219748349353221e-01  1.1130577944137796e-01  0.0000000000000000e+00  -1.2245532820032726e-01  0.0000000000000000e+00  -1.9839273872043317e-01  -2.3949227445389071e-01  -2.5565559425196505e-01  -2.5482355297154574e-01  -2.4299637420905298e-01  -2.2446207806964066e-01  -2.0213249641025235e-01  -1.7788831603238625e-01  -1.5287434329085070e-01  -1.2773488259744950e-01  -1.0278298412415417e-01  -7.8118429262097458e-02  -5.3708791840417221e-02  -2.9441611358561503e-02  -5.1614801353284919e-03  1.9304335506356473e-02  4.4127280013362212e-02  6.9454681098778989e-02  9.5384729374472635e-02  1.2192955889477426e-01  1.4896004071055244e-01  1.7612480888076906e-01  2.0272465082519051e-01  2.2753390094349357e-01  2.4855194554896121e-01  2.6267758452462436e-01  2.6532445586664538e-01  2.5003558074562732e-01  2.0821356773766189e-01  1.2909793325402344e-01  0.0000000000000000e+00  -1.4041371141840084e-01  0.0000000000000000e+00  -2.2219286274126590e-01  -2.6166785560929429e-01  -2.7272571181955380e-01  -2.6597386361741637e-01  -2.4884126471978246e-01  -2.2618370697117315e-01  -2.0099103243748831e-01  -1.7499701634620199e-01  -1.4912783859872697e-01  -1.2380935390986776e-01  -9.9169073731087867e-02  -7.5159562509272693e-02  -5.1633688945873862e-02  -2.8390690675808249e-02  -5.2033305765366248e-03  1.8166142771118492e-02  4.1953141847032395e-02  6.6379188294700034e-02  9.1633365864192948e-02  1.1784541934890973e-01  1.4504041479768062e-01  1.7305955497203801e-01  2.0143261580833607e-01  2.2917150251388599e-01  2.5444720966197076e-01  2.7410576607824372e-01  2.8299916154125127e-01  2.7318389154621942e-01  2.3321519834004617e-01  1.4803358275547721e-01  0.0000000000000000e+00  -1.5748833025415579e-01  0.0000000000000000e+00  -2.3935248819210761e-01  -2.7115939821643764e-01  -2.7314057573972950e-01  -2.5892432597069037e-01  -2.3680001829259384e-01  -2.1146006317926344e-01  -1.8539261668625423e-01  -1.5981155558257021e-01  -1.3522086208570605e-01  -1.1173867225117520e-01  -8.9281772589938302e-02  -6.7666183877180666e-02  -4.6659592284272584e-02  -2.6008646296387477e-02  -5.4524925960481438e-03  1.5271122087865062e-02  3.6423994155182132e-02  5.8263148394783373e-02  8.1035086531968878e-02  1.0496213734415029e-01  1.3021422568999586e-01  1.5685442524342763e-01  1.8473771213630735e-01  2.1332670880124807e-01  2.4135559775281212e-01  2.6624049679314038e-01  2.8308027002152653e-01  2.8309093050852924e-01  2.5157249945225912e-01  1.6642632997518739e-01  0.0000000000000000e+00  -1.6685162327200168e-01  0.0000000000000000e+00  -2.3519930587199689e-01  -2.5051198259918817e-01  -2.4077776030638257e-01  -2.2058614499035825e-01  -1.9692736735709745e-01  -1.7294682534161254e-01  -1.4993782764103250e-01  -1.2832422187317633e-01  -1.0813214861728900e-01  -8.9212462097070733e-02  -7.1345716063476769e-02  -5.4290272063508747e-02  -3.7802356192884315e-02  -2.1643018881992916e-02  -5.5790910797753994e-03  1.0619459272979545e-02  2.7182452917322561e-02  4.4343030753122410e-02  6.2339264145743249e-02  8.1413470954392886e-02  1.0180410197152559e-01  1.2372476144750115e-01  1.4731841403006127e-01  1.7255440232689223e-01  1.9901103394571842e-01  2.2541268831347050e-01  2.4862653454919725e-01  2.6151313918487867e-01  2.4855678531937878e-01  1.7855390252530964e-01  0.0000000000000000e+00  -1.4245928192666393e-01  0.0000000000000000e+00  -1.7402105329287509e-01  -1.6926237887675430e-01  -1.5395671821352530e-01  -1.3651503478960908e-01  -1.1959618428637077e-01  -1.0394160267755941e-01  -8.9644325615453865e-02  -7.6582451425598747e-02  -6.4571546208438760e-02  -5.3418062685200357e-02  -4.2937917143217562e-02  -3.2961184674230384e-02  -2.3330959493023606e-02  -1.3900612073995844e-02  -4.5302550009721446e-03  4.9168470925051921e-03  1.4578130791404326e-02  2.4595128147440828e-02  3.5117395766289181e-02  4.6305559867963725e-02  5.8333649143027855e-02  7.1390006068287756e-02  8.5673301113725259e-02  1.0137664941953035e-01  1.1864361063488855e-01  1.3744744983632978e-01  1.5723983521810031e-01  1.7586364098164647e-01  1.8584184279024735e-01  1.6051839969963647e-01  0.0000000000000000e+00  0.0000000000000000e+00  0.0000000000000000e+00  0.0000000000000000e+00  0.0000000000000000e+00  0.0000000000000000e+00  0.0000000000000000e+00  0.0000000000000000e+00  0.0000000000000000e+00  0.0000000000000000e+00  0.0000000000000000e+00  0.0000000000000000e+00  0.0000000000000000e+00  0.0000000000000000e+00  0.0000000000000000e+00  0.0000000000000000e+00  0.0000000000000000e+00  0.0000000000000000e+00  0.0000000000000000e+00  0.0000000000000000e+00  0.0000000000000000e+00  0.0000000000000000e+00  0.0000000000000000e+00  0.0000000000000000e+00  0.0000000000000000e+00  0.0000000000000000e+00  0.0000000000000000e+00  0.0000000000000000e+00  0.0000000000000000e+00  0.0000000000000000e+00  0.0000000000000000e+00  0.0000000000000000e+00  0.0000000000000000e+00  0.0000000000000000e+00  </DataArray> 
</PointData> 
</Piece>
</UnstructuredGrid>
</VTKFile>