<?xml version="1.0"?>
<VTKFile type="UnstructuredGrid"  version="0.1"  >
<UnstructuredGrid>
<Piece  NumberOfPoints="759" NumberOfCells="1408">
<Points>
<DataArray  type="Float64"  NumberOfComponents="3"  format="ascii">0 0.46875 0  0.03125 0.46875 0  0.03125 0.515625 0  0 0.515625 0  0.0625 0.46875 0  0.0625 0.515625 0  0.09375 0.46875 0  0.09375 0.515625 0  0.125 0.46875 0  0.125 0.515625 0  0.15625 0.46875 0  0.15625 0.515625 0  0.1875 0.46875 0  0.1875 0.515625 0  0.21875 0.46875 0  0.21875 0.515625 0  0.25 0.46875 0  0.25 0.515625 0  0.28125 0.46875 0  0.28125 0.515625 0  0.3125 0.46875 0  0.3125 0.515625 0  0.34375 0.46875 0  0.34375 0.515625 0  0.375 0.46875 0  0.375 0.515625 0  0.40625 0.46875 0  0.40625 0.515625 0  0.4375 0.46875 0  0.4375 0.515625 0  0.46875 0.46875 0  0.46875 0.515625 0  0.5 0.46875 0  0.5 0.515625 0  0.53125 0.46875 0  0.53125 0.515625 0  0.5625 0.46875 0  0.5625 0.515625 0  0.59375 0.46875 0  0.59375 0.515625 0  0.625 0.46875 0  0.625 0.515625 0  0.65625 0.46875 0  0.65625 0.515625 0  0.6875 0.46875 0  0.6875 0.515625 0  0.71875 0.46875 0  0.71875 0.515625 0  0.75 0.46875 0  0.75 0.515625 0  0.78125 0.46875 0  0.78125 0.515625 0  0.8125 0.46875 0  0.8125 0.515625 0  0.84375 0.46875 0  0.84375 0.515625 0  0.875 0.46875 0  0.875 0.515625 0  0.90625 0.46875 0  0.90625 0.515625 0  0.9375 0.46875 0  0.9375 0.515625 0  0.96875 0.46875 0  0.96875 0.515625 0  1 0.46875 0  1 0.515625 0  0.03125 0.5625 0  0 0.5625 0  0.0625 0.5625 0  0.09375 0.5625 0  0.125 0.5625 0  0.15625 0.5625 0  0.1875 0.5625 0  0.21875 0.5625 0  0.25 0.5625 0  0.28125 0.5625 0  0.3125 0.5625 0  0.34375 0.5625 0  0.375 0.5625 0  0.40625 0.5625 0  0.4375 0.5625 0  0.46875 0.5625 0  0.5 0.5625 0  0.53125 0.5625 0  0.5625 0.5625 0  0.59375 0.5625 0  0.625 0.5625 0  0.65625 0.5625 0  0.6875 0.5625 0  0.71875 0.5625 0  0.75 0.5625 0  0.78125 0.5625 0  0.8125 0.5625 0  0.84375 0.5625 0  0.875 0.5625 0  0.90625 0.5625 0  0.9375 0.5625 0  0.96875 0.5625 0  1 0.5625 0  0.03125 0.609375 0  0 0.609375 0  0.0625 0.609375 0  0.09375 0.609375 0  0.125 0.609375 0  0.15625 0.609375 0  0.1875 0.609375 0  0.21875 0.609375 0  0.25 0.609375 0  0.28125 0.609375 0  0.3125 0.609375 0  0.34375 0.609375 0  0.375 0.609375 0  0.40625 0.609375 0  0.4375 0.609375 0  0.46875 0.609375 0  0.5 0.609375 0  0.53125 0.609375 0  0.5625 0.609375 0  0.59375 0.609375 0  0.625 0.609375 0  0.65625 0.609375 0  0.6875 0.609375 0  0.71875 0.609375 0  0.75 0.609375 0  0.78125 0.609375 0  0.8125 0.609375 0  0.84375 0.609375 0  0.875 0.609375 0  0.90625 0.609375 0  0.9375 0.609375 0  0.96875 0.609375 0  1 0.609375 0  0.03125 0.65625 0  0 0.65625 0  0.0625 0.65625 0  0.09375 0.65625 0  0.125 0.65625 0  0.15625 0.65625 0  0.1875 0.65625 0  0.21875 0.65625 0  0.25 0.65625 0  0.28125 0.65625 0  0.3125 0.65625 0  0.34375 0.65625 0  0.375 0.65625 0  0.40625 0.65625 0  0.4375 0.65625 0  0.46875 0.65625 0  0.5 0.65625 0  0.53125 0.65625 0  0.5625 0.65625 0  0.59375 0.65625 0  0.625 0.65625 0  0.65625 0.65625 0  0.6875 0.65625 0  0.71875 0.65625 0  0.75 0.65625 0  0.78125 0.65625 0  0.8125 0.65625 0  0.84375 0.65625 0  0.875 0.65625 0  0.90625 0.65625 0  0.9375 0.65625 0  0.96875 0.65625 0  1 0.65625 0  0.03125 0.703125 0  0 0.703125 0  0.0625 0.703125 0  0.09375 0.703125 0  0.125 0.703125 0  0.15625 0.703125 0  0.1875 0.703125 0  0.21875 0.703125 0  0.25 0.703125 0  0.28125 0.703125 0  0.3125 0.703125 0  0.34375 0.703125 0  0.375 0.703125 0  0.40625 0.703125 0  0.4375 0.703125 0  0.46875 0.703125 0  0.5 0.703125 0  0.53125 0.703125 0  0.5625 0.703125 0  0.59375 0.703125 0  0.625 0.703125 0  0.65625 0.703125 0  0.6875 0.703125 0  0.71875 0.703125 0  0.75 0.703125 0  0.78125 0.703125 0  0.8125 0.703125 0  0.84375 0.703125 0  0.875 0.703125 0  0.90625 0.703125 0  0.9375 0.703125 0  0.96875 0.703125 0  1 0.703125 0  0.03125 0.75 0  0 0.75 0  0.0625 0.75 0  0.09375 0.75 0  0.125 0.75 0  0.15625 0.75 0  0.1875 0.75 0  0.21875 0.75 0  0.25 0.75 0  0.28125 0.75 0  0.3125 0.75 0  0.34375 0.75 0  0.375 0.75 0  0.40625 0.75 0  0.4375 0.75 0  0.46875 0.75 0  0.5 0.75 0  0.53125 0.75 0  0.5625 0.75 0  0.59375 0.75 0  0.625 0.75 0  0.65625 0.75 0  0.6875 0.75 0  0.71875 0.75 0  0.75 0.75 0  0.78125 0.75 0  0.8125 0.75 0  0.84375 0.75 0  0.875 0.75 0  0.90625 0.75 0  0.9375 0.75 0  0.96875 0.75 0  1 0.75 0  0.03125 0.796875 0  0 0.796875 0  0.0625 0.796875 0  0.09375 0.796875 0  0.125 0.796875 0  0.15625 0.796875 0  0.1875 0.796875 0  0.21875 0.796875 0  0.25 0.796875 0  0.28125 0.796875 0  0.3125 0.796875 0  0.34375 0.796875 0  0.375 0.796875 0  0.40625 0.796875 0  0.4375 0.796875 0  0.46875 0.796875 0  0.5 0.796875 0  0.53125 0.796875 0  0.5625 0.796875 0  0.59375 0.796875 0  0.625 0.796875 0  0.65625 0.796875 0  0.6875 0.796875 0  0.71875 0.796875 0  0.75 0.796875 0  0.78125 0.796875 0  0.8125 0.796875 0  0.84375 0.796875 0  0.875 0.796875 0  0.90625 0.796875 0  0.9375 0.796875 0  0.96875 0.796875 0  1 0.796875 0  0.03125 0.84375 0  0 0.84375 0  0.0625 0.84375 0  0.09375 0.84375 0  0.125 0.84375 0  0.15625 0.84375 0  0.1875 0.84375 0  0.21875 0.84375 0  0.25 0.84375 0  0.28125 0.84375 0  0.3125 0.84375 0  0.34375 0.84375 0  0.375 0.84375 0  0.40625 0.84375 0  0.4375 0.84375 0  0.46875 0.84375 0  0.5 0.84375 0  0.53125 0.84375 0  0.5625 0.84375 0  0.59375 0.84375 0  0.625 0.84375 0  0.65625 0.84375 0  0.6875 0.84375 0  0.71875 0.84375 0  0.75 0.84375 0  0.78125 0.84375 0  0.8125 0.84375 0  0.84375 0.84375 0  0.875 0.84375 0  0.90625 0.84375 0  0.9375 0.84375 0  0.96875 0.84375 0  1 0.84375 0  0.03125 0.890625 0  0 0.890625 0  0.0625 0.890625 0  0.09375 0.890625 0  0.125 0.890625 0  0.15625 0.890625 0  0.1875 0.890625 0  0.21875 0.890625 0  0.25 0.890625 0  0.28125 0.890625 0  0.3125 0.890625 0  0.34375 0.890625 0  0.375 0.890625 0  0.40625 0.890625 0  0.4375 0.890625 0  0.46875 0.890625 0  0.5 0.890625 0  0.53125 0.890625 0  0.5625 0.890625 0  0.59375 0.890625 0  0.625 0.890625 0  0.65625 0.890625 0  0.6875 0.890625 0  0.71875 0.890625 0  0.75 0.890625 0  0.78125 0.890625 0  0.8125 0.890625 0  0.84375 0.890625 0  0.875 0.890625 0  0.90625 0.890625 0  0.9375 0.890625 0  0.96875 0.890625 0  1 0.890625 0  0.03125 0.9375 0  0 0.9375 0  0.0625 0.9375 0  0.09375 0.9375 0  0.125 0.9375 0  0.15625 0.9375 0  0.1875 0.9375 0  0.21875 0.9375 0  0.25 0.9375 0  0.28125 0.9375 0  0.3125 0.9375 0  0.34375 0.9375 0  0.375 0.9375 0  0.40625 0.9375 0  0.4375 0.9375 0  0.46875 0.9375 0  0.5 0.9375 0  0.53125 0.9375 0  0.5625 0.9375 0  0.59375 0.9375 0  0.625 0.9375 0  0.65625 0.9375 0  0.6875 0.9375 0  0.71875 0.9375 0  0.75 0.9375 0  0.78125 0.9375 0  0.8125 0.9375 0  0.84375 0.9375 0  0.875 0.9375 0  0.90625 0.9375 0  0.9375 0.9375 0  0.96875 0.9375 0  1 0.9375 0  0.03125 0.984375 0  0 0.984375 0  0.0625 0.984375 0  0.09375 0.984375 0  0.125 0.984375 0  0.15625 0.984375 0  0.1875 0.984375 0  0.21875 0.984375 0  0.25 0.984375 0  0.28125 0.984375 0  0.3125 0.984375 0  0.34375 0.984375 0  0.375 0.984375 0  0.40625 0.984375 0  0.4375 0.984375 0  0.46875 0.984375 0  0.5 0.984375 0  0.53125 0.984375 0  0.5625 0.984375 0  0.59375 0.984375 0  0.625 0.984375 0  0.65625 0.984375 0  0.6875 0.984375 0  0.71875 0.984375 0  0.75 0.984375 0  0.78125 0.984375 0  0.8125 0.984375 0  0.84375 0.984375 0  0.875 0.984375 0  0.90625 0.984375 0  0.9375 0.984375 0  0.96875 0.984375 0  1 0.984375 0  0.03125 1.03125 0  0 1.03125 0  0.0625 1.03125 0  0.09375 1.03125 0  0.125 1.03125 0  0.15625 1.03125 0  0.1875 1.03125 0  0.21875 1.03125 0  0.25 1.03125 0  0.28125 1.03125 0  0.3125 1.03125 0  0.34375 1.03125 0  0.375 1.03125 0  0.40625 1.03125 0  0.4375 1.03125 0  0.46875 1.03125 0  0.5 1.03125 0  0.53125 1.03125 0  0.5625 1.03125 0  0.59375 1.03125 0  0.625 1.03125 0  0.65625 1.03125 0  0.6875 1.03125 0  0.71875 1.03125 0  0.75 1.03125 0  0.78125 1.03125 0  0.8125 1.03125 0  0.84375 1.03125 0  0.875 1.03125 0  0.90625 1.03125 0  0.9375 1.03125 0  0.96875 1.03125 0  1 1.03125 0  0.03125 1.078125 0  0 1.078125 0  0.0625 1.078125 0  0.09375 1.078125 0  0.125 1.078125 0  0.15625 1.078125 0  0.1875 1.078125 0  0.21875 1.078125 0  0.25 1.078125 0  0.28125 1.078125 0  0.3125 1.078125 0  0.34375 1.078125 0  0.375 1.078125 0  0.40625 1.078125 0  0.4375 1.078125 0  0.46875 1.078125 0  0.5 1.078125 0  0.53125 1.078125 0  0.5625 1.078125 0  0.59375 1.078125 0  0.625 1.078125 0  0.65625 1.078125 0  0.6875 1.078125 0  0.71875 1.078125 0  0.75 1.078125 0  0.78125 1.078125 0  0.8125 1.078125 0  0.84375 1.078125 0  0.875 1.078125 0  0.90625 1.078125 0  0.9375 1.078125 0  0.96875 1.078125 0  1 1.078125 0  0.03125 1.125 0  0 1.125 0  0.0625 1.125 0  0.09375 1.125 0  0.125 1.125 0  0.15625 1.125 0  0.1875 1.125 0  0.21875 1.125 0  0.25 1.125 0  0.28125 1.125 0  0.3125 1.125 0  0.34375 1.125 0  0.375 1.125 0  0.40625 1.125 0  0.4375 1.125 0  0.46875 1.125 0  0.5 1.125 0  0.53125 1.125 0  0.5625 1.125 0  0.59375 1.125 0  0.625 1.125 0  0.65625 1.125 0  0.6875 1.125 0  0.71875 1.125 0  0.75 1.125 0  0.78125 1.125 0  0.8125 1.125 0  0.84375 1.125 0  0.875 1.125 0  0.90625 1.125 0  0.9375 1.125 0  0.96875 1.125 0  1 1.125 0  0.03125 1.171875 0  0 1.171875 0  0.0625 1.171875 0  0.09375 1.171875 0  0.125 1.171875 0  0.15625 1.171875 0  0.1875 1.171875 0  0.21875 1.171875 0  0.25 1.171875 0  0.28125 1.171875 0  0.3125 1.171875 0  0.34375 1.171875 0  0.375 1.171875 0  0.40625 1.171875 0  0.4375 1.171875 0  0.46875 1.171875 0  0.5 1.171875 0  0.53125 1.171875 0  0.5625 1.171875 0  0.59375 1.171875 0  0.625 1.171875 0  0.65625 1.171875 0  0.6875 1.171875 0  0.71875 1.171875 0  0.75 1.171875 0  0.78125 1.171875 0  0.8125 1.171875 0  0.84375 1.171875 0  0.875 1.171875 0  0.90625 1.171875 0  0.9375 1.171875 0  0.96875 1.171875 0  1 1.171875 0  0.03125 1.21875 0  0 1.21875 0  0.0625 1.21875 0  0.09375 1.21875 0  0.125 1.21875 0  0.15625 1.21875 0  0.1875 1.21875 0  0.21875 1.21875 0  0.25 1.21875 0  0.28125 1.21875 0  0.3125 1.21875 0  0.34375 1.21875 0  0.375 1.21875 0  0.40625 1.21875 0  0.4375 1.21875 0  0.46875 1.21875 0  0.5 1.21875 0  0.53125 1.21875 0  0.5
[...]
<PointData  Scalars="p"> 
<DataArray  type="Float64"  Name="p"  format="ascii">0.0000000000000000e+00  -9.4262633256055363e-03  -9.8744916909151124e-03  0.0000000000000000e+00  -1.6254136290639005e-02  -1.7002826830895306e-02  -2.0955995202404022e-02  -2.1912213855617649e-02  -2.3931996808384530e-02  -2.5027048897629096e-02  -2.5512326050034194e-02  -2.6690421339097870e-02  -2.5966229055047627e-02  -2.7179954493370403e-02  -2.5512145445030152e-02  -2.6720341191934477e-02  -2.4326996239992221e-02  -2.5493767121781065e-02  -2.2554312037336727e-02  -2.3648362796453649e-02  -2.0310995413731624e-02  -2.1305321360620091e-02  -1.7693041029655583e-02  -1.8564606746326654e-02  -1.4780237045623278e-02  -1.5509857172597005e-02  -1.1640127051492021e-02  -1.2212282725800135e-02  -8.3312833339615183e-03  -8.7340898834020724e-03  -4.9061588830043336e-03  -5.1312880156054123e-03  -1.4135220183876011e-03  -1.4562484524381632e-03  2.0993180717212494e-03  2.2400882314890596e-03  5.5844333555606501e-03  5.9060292670821950e-03  8.9911927273940359e-03  9.4870482415386984e-03  1.2264138627358685e-02  1.2923574132358059e-02  1.5340661332943976e-02  1.6148673195392840e-02  1.8148385810137800e-02  1.9085363962938948e-02  2.0602125299217414e-02  2.1643588112374174e-02  2.2600295945993224e-02  2.3716562652297792e-02  2.4020539767268898e-02  2.5176438046190477e-02  2.4714439735469083e-02  2.5868947932938816e-02  2.4500980481170401e-02  2.5606956763747253e-02  2.3158555451157845e-02  2.4162500712352455e-02  2.0415058249956465e-02  2.1257337519485397e-02  1.5935319303632657e-02  1.6551720614453466e-02  9.3041154000446259e-03  9.6320864181074894e-03  0.0000000000000000e+00  0.0000000000000000e+00  -1.0919505761551011e-02  0.0000000000000000e+00  -1.8823145935184474e-02  -2.4290520723047052e-02  -2.7785188591086012e-02  -2.9679394397860694e-02  -3.0272979387286909e-02  -2.9808521704221363e-02  -2.8482985355238657e-02  -2.6457460142030074e-02  -2.3864557845012669e-02  -2.0814861303994708e-02  -1.7401773476896854e-02  -1.3705928288903350e-02  -9.7984905731603386e-03  -5.7443726283067922e-03  -1.6046938260284092e-03  2.5606786483498515e-03  6.6909869739109539e-03  1.0722225232835026e-02  1.4584944638429683e-02  1.8201689991068075e-02  2.1484332539915722e-02  2.4330797018555655e-02  2.6621433862783248e-02  2.8214386551291999e-02  2.8940164489440968e-02  2.8594724813746412e-02  2.6931122246705602e-02  2.3649044419930394e-02  1.8382118096367171e-02  1.0682183659774341e-02  0.0000000000000000e+00  -1.2507052321007414e-02  0.0000000000000000e+00  -2.1572475237000909e-02  -2.7862694029358332e-02  -3.1905646032497133e-02  -3.4121846513711203e-02  -3.4848496724626657e-02  -3.4357506525414590e-02  -3.2870054738116043e-02  -3.0567292160172389e-02  -2.7599524462647618e-02  -2.4092693919431127e-02  -2.0154508119213686e-02  -1.5878525248796814e-02  -1.1348477454267911e-02  -6.6411077526325676e-03  -1.8294810548845483e-03  3.0147805021761382e-03  7.8186402993303556e-03  1.2505491418268568e-02  1.6992357911921718e-02  2.1187453545059923e-02  2.4986949195892345e-02  2.8271763265516624e-02  3.0903293235542022e-02  3.2718682119896231e-02  3.3524464525522803e-02  3.3089049493799608e-02  3.1132658145986654e-02  2.7314935266450204e-02  2.1218483775045340e-02  1.2327647824862698e-02  0.0000000000000000e+00  -1.4624826617635362e-02  0.0000000000000000e+00  -2.5215622154810283e-02  -3.2565233572319205e-02  -3.7295551704176234e-02  -3.9898184323918021e-02  -4.0764577203757695e-02  -4.0209463693022487e-02  -3.8487880373699365e-02  -3.5809226599344351e-02  -3.2346978532020836e-02  -2.8247570131688091e-02  -2.3636103089261191e-02  -1.8622420145565106e-02  -1.3304609783252491e-02  -7.7736321302722408e-03  -2.1157488804917340e-03  3.5836410589448926e-03  9.2379018046622619e-03  1.4755604074288532e-02  2.0038294714131395e-02  2.4976832109458062e-02  2.9448499082742937e-02  3.3312608548559282e-02  3.6406306073860806e-02  3.8538429454600669e-02  3.9482648013981068e-02  3.8967868191714217e-02  3.6666394086063356e-02  3.2177808991284168e-02  2.5008055150096596e-02  1.4540931793197228e-02  0.0000000000000000e+00  -1.7295212779180363e-02  0.0000000000000000e+00  -2.9784493826057325e-02  -3.8429442581339686e-02  -4.3978993975120353e-02  -4.7020940657325518e-02  -4.8020862250104893e-02  -4.7350876939123564e-02  -4.5311878626620769e-02  -4.2149653761804490e-02  -3.8068101209062712e-02  -3.3238301021038967e-02  -2.7807114910197186e-02  -2.1902367651559149e-02  -1.5639144400686065e-02  -9.1229529259242957e-03  -2.4549861862169045e-03  4.2657033843185553e-03  1.0937338750108631e-02  1.7453382476843294e-02  2.3697796795107889e-02  2.9542523105164267e-02  3.4842396080761458e-02  3.9431322870451598e-02  4.3116002148889943e-02  4.5669588390201590e-02  4.6822374646303080e-02  4.6250729493958677e-02  4.3561590527185716e-02  3.8272557493137037e-02  2.9784572796578038e-02  1.7345402146076990e-02  0.0000000000000000e+00  -2.0566338326886945e-02  0.0000000000000000e+00  -3.5355725502721237e-02  -4.5545782985761209e-02  -5.2049069721954083e-02  -5.5578316657766025e-02  -5.6695233005331525e-02  -5.5846886998836269e-02  -5.3392928031100559e-02  -4.9626152085646434e-02  -4.4787838543684878e-02  -3.9079954715475880e-02  -3.2674082756120132e-02  -2.5719566695095925e-02  -1.8348827546378749e-02  -1.0683940913719943e-02  -2.8399230129821343e-03  5.0691221967335224e-03  1.2927644183016810e-02  2.0612393558129990e-02  2.7990082712699656e-02  3.4910962694486486e-02  4.1205371931025837e-02  4.6676631268394574e-02  5.1095173481525424e-02  5.4189223432629267e-02  5.5634329695095026e-02  5.5038737001462626e-02  5.1924500694237916e-02  4.5701953774589126e-02  3.5635327234827138e-02  2.0796116179462573e-02  0.0000000000000000e+00  -2.4505592036263978e-02  0.0000000000000000e+00  -4.2037521370524543e-02  -5.4043305158260717e-02  -6.1640980995740141e-02  -6.5700984425020911e-02  -6.6906856544863294e-02  -6.5800700385423128e-02  -6.2816590052620663e-02  -5.8306090841456319e-02  -5.2556940954708781e-02  -4.5807916430941731e-02  -3.8260096422469206e-02  -3.0086100777023506e-02  -2.1437935766751817e-02  -1.2453203927015599e-02  -3.2618906871457547e-03  6.0093051272182667e-03  1.5229947648228716e-02  2.4262364412900157e-02  3.2954001576697547e-02  4.1133662716554983e-02  4.8603087184602024e-02  5.5131249393950831e-02  6.0444448461799916e-02  6.4216383772757693e-02  6.6053948995338355e-02  6.5479613292704658e-02  6.1907531246169413e-02  5.4611693779566796e-02  4.2682833061128904e-02  2.4969747942951918e-02  0.0000000000000000e+00  -2.9195996918831110e-02  0.0000000000000000e+00  -4.9962000806456790e-02  -6.4077753064887097e-02  -7.2915409762527222e-02  -7.7541407700722403e-02  -7.8791457963737807e-02  -7.7326547781242788e-02  -7.3673831045646301e-02  -6.8257756032262931e-02  -6.1422959468776545e-02  -5.3452281008299365e-02  -4.4580774887449250e-02  -3.5007037257626800e-02  -2.4902939182313771e-02  -1.4421840958810463e-02  -3.7063519048479918e-03  7.1046115891634050e-03  1.7869041834971375e-02  2.8434361002583459e-02  3.8631132633079754e-02  4.8264163452669602e-02  5.7105620481573596e-02  6.4883970793866222e-02  7.1274383398999927e-02  7.5883939337684517e-02  7.8235382671780387e-02  7.7744263421496235e-02  7.3689852358832658e-02  6.5175398437765819e-02  5.1074800201217921e-02  2.9959562284972808e-02  0.0000000000000000e+00  -3.4734860210539162e-02  0.0000000000000000e+00  -5.9281312630538444e-02  -7.5824055687986433e-02  -8.6047034827801613e-02  -9.1258100995445374e-02  -9.2482052201967688e-02  -9.0527293851719620e-02  -8.6037091894461640e-02  -7.9525345886549872e-02  -7.1406335551773767e-02  -6.2014772063858144e-02  -5.1624861440666317e-02  -4.0463001110113882e-02  -2.8721037372989210e-02  -1.6566365777751130e-02  -4.1516469318248986e-03  8.3753401365993744e-03  2.0863829614322569e-02  3.3149639028426832e-02  4.5047136847276723e-02  5.6338627501080180e-02  6.6763267338156046e-02  7.6005745298475064e-02  8.3680295525377965e-02  8.9315422480283138e-02  9.2330392207765566e-02  9.2009453871908800e-02  8.7464067403956056e-02  7.7585669177721389e-02  6.0979108093441418e-02  3.5873574606539067e-02  0.0000000000000000e+00  -4.1233359047877574e-02  0.0000000000000000e+00  -7.0164386896180708e-02  -8.9469182793390278e-02  -1.0121198602469489e-01  -1.0699850257536207e-01  -1.0808681568635878e-01  -1.0546966678065779e-01  -9.9932973193355923e-02  -9.2102145353879686e-02  -8.2473936975825612e-02  -7.1445579067220821e-02  -5.9333595129578684e-02  -4.6394652662368370e-02  -3.2838260998200232e-02  -1.8842920546764081e-02  -4.5670638703568037e-03  9.8385208138642988e-03  2.4218594539336148e-02  3.8403102238710511e-02  5.2193267526138072e-02  6.5350572559304709e-02  7.7581455487648582e-02  8.8520961677351295e-02  9.7715609799386510e-02  1.0459865855907446e-01  1.0846587527480639e-01  1.0843869339414812e-01  1.0342214668905421e-01  9.2044470015152299e-02  7.2578656700261909e-02  4.2832559745617033e-02  0.0000000000000000e+00  -4.8815832685988492e-02  0.0000000000000000e+00  -8.2792775831268178e-02  -1.0520119302459617e-01  -1.1857046002189563e-01  -1.2487342815483919e-01  -1.2565908620854449e-01  -1.2214884182279481e-01  -1.1530708241843649e-01  -1.0589399862428021e-01  -9.4507201305578117e-02  -8.1613590093588567e-02  -6.7578049392368958e-02  -5.2684651648613516e-02  -3.7158823673037605e-02  -2.1182932447878545e-02  -4.9148071390298607e-03  1.1499391495434679e-02  2.7908600961986149e-02  4.4143354551041764e-02  5.9999510416108098e-02  7.5221506046935102e-02  8.9484344035831026e-02  1.0237191880080525e-01  1.1335226316164983e-01  1.2174982172645420e-01  1.2670901495567857e-01  1.2715404869820712e-01  1.2173301476436289e-01  1.0874896714152449e-01  8.6063796380330126e-02  5.0967992006502774e-02  0.0000000000000000e+00  -5.7618680951509564e-02  0.0000000000000000e+00  -9.7352438146822040e-02  -1.2319129608844863e-01  -1.3823636509901663e-01  -1.4491757337537128e-01  -1.4514867214336075e-01  -1.4043806481410889e-01  -1.3197110220623318e-01  -1.2067267355114510e-01  -1.0725780164634909e-01  -9.2272604083005527e-02  -7.6130047666297329e-02  -5.9139529626448785e-02  -4.1533468442196401e-02  -2.3490616477500986e-02  -5.1558778943305164e-03  1.3338725053583397e-02  3.1858821141019615e-02  5.0245558117464763e-02  6.8299888483957280e-02  8.5757914076195957e-02  1.0226781701618848e-01  1.1736246170572003e-01  1.3042545949919529e-01  1.4065440414010463e-01  1.4701555356606594e-01  1.4819003071425998e-01  1.4250902563472023e-01  1.2786909465421784e-01  1.0162166198612865e-01  6.0418864919230639e-02  0.0000000000000000e+00  -6.7786825837356679e-02  0.0000000000000000e+00  -1.1401759432377444e-01  -1.4355926514040535e-01  -1.6022422606816505e-01  -1.6702018764156487e-01  -1.6632417909215244e-01  -1.6000685898933309e-01  -1.4952677769725489e-01  -1.3600588645719816e-01  -1.2029233338435161e-01  -1.0301562555953868e-01  -8.4632448917124584e-02  -6.5468479411280658e-02  -4.5751507074982482e-02  -2.5642140738106320e-02  -5.2597662061777866e-03  1.5295142778216326e-02  3.5916620198246457e-02  5.6474267495029977e-02  7.6785810962489182e-02  9.6593338643529258e-02  1.1552954061674910e-01  1.3308097903768831e-01  1.4854612272952875e-01  1.6098158817538910e-01  1.6914407159932693e-01  1.7142050196166633e-01  1.6574634325444096e-01  1.4950812725396292e-01  1.1941487858946873e-01  7.1325139265180276e-02  0.0000000000000000e+00  -7.9466593335307062e-02  0.0000000000000000e+00  -1.3291964070824916e-01  -1.6630991431834008e-01  -1.8435460722175040e-01  -1.9080852348048047e-01  -1.8864644535260885e-01  -1.8019764234731525e-01  -1.6725369715386765e-01  -1.5116355847863008e-01  -1.3291751859035880e-01  -1.1322148216587836e-01  -9.2563100742343737e-02  -7.1265279811003515e-02  -4.9533464412972128e-02  -2.7492269322743564e-02  -5.2165645991825386e-03  1.7239855526064145e-02  3.9819995132007069e-02  6.2436607239461601e-02  8.4945876918563840e-02  1.0711321904994169e-01  1.2857518318637476e-01  1.4878944558656915e-01  1.6697572364154326e-01  1.8204576382585264e-01  1.9251894291897753e-01  1.9642960485985092e-01  1.9122201121954963e-01  1.7363186018855603e-01  1.3954670086073001e-01  8.3818928061936734e-02  0.0000000000000000e+00  -9.2788578013029796e-02  0.0000000000000000e+00  -1.5408137089490712e-01  -1.9120773554109038e-01  -2.1007921439322363e-01  -2.1544551957205405e-01  -2.1106422409761758e-01  -1.9983945820111959e-01  -1.8395405030329856e-01  -1.6499875884055840e-01  -1.4409415891457153e-01  -1.2199874665168318e-01  -9.9200691092571069e-02  -7.5992663572094457e-02  -5.2530653367557932e-02  -2.8881317076373338e-02  -5.0571293433688243e-03  1.8953755353824132e-02  4.3159339463027864e-02  6.7536422098742901e-02  9.2000023087157767e-02  1.1636681588780338e-01  1.4030546798593624e-01  1.6327551122158840e-01  1.8444679616226420e-01  2.0260004355608932e-01  2.1600830243648669e-01  2.2229978877899290e-01  2.1831150701876473e-01  1.9994097685539849e-01  1.6199330226189032e-01  9.8006594389538459e-02  0.0000000000000000e+00  -1.0782369837722659e-01  0.0000000000000000e+00  -1.7727050772559100e-01  -2.1752022482321717e-01  -2.3614834682038527e-01  -2.3927587335448594e-01  -2.3168587263095183e-01  -2.1697574823163754e-01  -1.9774704941472518e-01  -1.7580545583008156e-01  -1.5235060525542701e-01  -1.2813752816737120e-01  -1.0360544294984446e-01  -7.8976875621164205e-02  -5.4328705095055205e-02  -2.9646577544773057e-02  -4.8643956333332640e-03  2.0107829324465549e-02  4.5356435063643855e-02  7.0938284199565826e-02  9.6849976859148118e-02  1.2298809981579585e-01  1.4909530714298513e-01  1.7468315018529423e-01  1.9893029255474315e-01  2.2054332418400668e-01  2.3758082438721340e-01  2.4724436716256684e-01  2.4564989060103687e-01  2.2761029285510193e-01  1.8645948808657886e-01  1.1392682631449215e-01  0.0000000000000000e+00  -1.2447317964235503e-01  0.0000000000000000e+00  -2.0166624651063669e-01  -2.4348396102240027e-01  -2.5998687914777152e-01  -2.5922797529552666e-01  -2.4728639571676550e-01  -2.2850552101584848e-01  -2.0583583767240821e-01  -1.8118489501702253e-01  -1.5571603938901341e-01  -1.3008635882190614e-01  -1.0461776034609901e-01  -7.9416275820818963e-02  -5.4454115696790165e-02  -2.9622555238294348e-02  -4.7695968681736190e-03  2.0273960403933387e-02  4.5675560085450380e-02  7.1577688991733945e-02  9.8072505706245081e-02  1.2516449405640254e-01  1.5271469113236427e-01  1.8035894494771401e-01  2.0738111617263794e-01  2.3253274125948689e-01  2.5378195890174804e-01  2.6798401675368527e-01  2.7049099650184066e-01  2.5475803833782801e-01  2.1206151719090377e-01  1.3145910032621910e-01  0.0000000000000000e+00  -1.4216744015543395e-01  0.0000000000000000e+00  -2.2504863384034163e-01  -2.6516565942966680e-01  -2.7654000352959768e-01  -2.6987347009806967e-01  -2.5266124926471017e-01  -2.2980558781888474e-01  -2.0432884869246043e-01  -1.7798759464504713e-01  -1.5172398914194465e-01  -1.2597515684699301e-01  -1.0087671807810293e-01  -7.6387263342465511e-02  -5.2364392383054612e-02  -2.8611390139529853e-02  -4.9048475003019409e-03  1.8989018000276411e-02  4.3301183140440784e-02  6.8247985475471507e-02  9.4012257337977939e-02  1.2071608248497626e-01  1.4837501568624284e-01  1.7681824244335700e-01  2.0556010795406529e-01  2.3359230038542955e-01  2.5905873839535387e-01  2.7876837474570570e-01  2.8752139609907912e-01  2.7730078686740151e-01  2.3655629125814381e-01  1.5007602653705529e-01  0.0000000000000000e+00  -1.5892917074436838e-01  0.0000000000000000e+00  -2.4171351149325301e-01  -2.7407185601559486e-01  -2.7634106377526368e-01  -2.6222295158151637e-01  -2.4005838213263259e-01  -2.1457599863955459e-01  -1.8828955472231118e-01  -1.6243115975524716e-01  -1.3751794500551348e-01  -1.1367766776557478e-01  -9.0834353998603665e-02  -6.8809707376321166e-02  -4.7376130301507544e-02  -2.6284473127913016e-02  -5.2779362414172816e-03  1.5901526319033632e-02  3.7511103231306193e-02  5.9802549004720880e-02  8.3016191374085696e-02  1.0736699983560001e-01  1.3301599393663413e-01  1.6001532123185794e-01  1.8820634598889741e-01  2.1703441125202202e-01  2.4521123232184147e-01  2.7012300121060323e-01  2.8682769759670668e-01  2.8648409326630964e-01  2.5431050042292880e-01  1.6809031590528190e-01  0.0000000000000000e+00  -1.6791848862990544e-01  0.0000000000000000e+00  -2.3696403193543383e-01  -2.5271121552957887e-01  -2.4322041247432508e-01  -2.2313119822842778e-01  -1.9946887507996508e-01  -1.7540376664295579e-01  -1.5224718688044772e-01  -1.3043621608737646e-01  -1.1000692334490736e-01  -9.0817781964693658e-02  -7.2655370445159698e-02  -5.5283007306426012e-02  -3.8461198090888382e-02  -2.1954904724002584e-02  -5.5347610274385237e-03  1.1025352412726588e-02  2.7951022388924572e-02  4.5470643836705293e-02  6.3816826617066599e-02  8.3225492990340599e-02  1.0392749281524438e-01  1.2612728936829123e-01  1.4995674121999999e-01  1.7537146785913385e-01  2.0193251571452525e-01  2.2834211012041164e-01  2.5143820089582480e-01  2.6404167957448987e-01  2.5058131718376120e-01  1.7977379578008457e-01  0.0000000000000000e+00  -1.4306360588033348e-01  0.0000000000000000e+00  -1.7503341007868264e-01  -1.7054132135628614e-01  -1.5539696999425376e-01  -1.3803595579609076e-01  -1.2113462479815303e-01  -1.0544727946518793e-01  -9.1076676083889238e-02  -7.7908427546211995e-02  -6.5764031879575816e-02  -5.4454715243129774e-02  -4.3800331875956729e-02  -3.3634307458310302e-02  -2.3802691464734117e-02  -1.4161578351145510e-02  -4.5737183813823875e-03  5.0949364474516395e-03  1.4978958861766091e-02  2.5216709546111240e-02  3.5954139767529411e-02  4.7347688162356585e-02  5.9566445787812616e-02  7.2792878368790379e-02  8.7218594398897342e-02  1.0302812601886198e-01  1.2035448836708243e-01  1.3915781967210450e-01  1.5887312739387824e-01  1.7732172276998462e-01  1.8699800004263198e-01  1.6120688465629099e-01  0.0000000000000000e+00  0.0000000000000000e+00  0.0000000000000000e+00  0.0000000000000000e+00  0.0000000000000000e+00  0.0000000000000000e+00  0.0000000000000000e+00  0.0000000000000000e+00  0.0000000000000000e+00  0.0000000000000000e+00  0.0000000000000000e+00  0.0000000000000000e+00  0.0000000000000000e+00  0.0000000000000000e+00  0.0000000000000000e+00  0.0000000000000000e+00  0.0000000000000000e+00  0.0000000000000000e+00  0.0000000000000000e+00  0.0000000000000000e+00  0.0000000000000000e+00  0.0000000000000000e+00  0.0000000000000000e+00  0.0000000000000000e+00  0.0000000000000000e+00  0.0000000000000000e+00  0.0000000000000000e+00  0.0000000000000000e+00  0.0000000000000000e+00  0.0000000000000000e+00  0.0000000000000000e+00  0.0000000000000000e+00  0.0000000000000000e+00  0.0000000000000000e+00  </DataArray> 
</PointData> 
</Piece>
</UnstructuredGrid>
</VTKFile>