<?xml version="1.0"?>
<VTKFile type="UnstructuredGrid"  version="0.1"  >
<UnstructuredGrid>
<Piece  NumberOfPoints="759" NumberOfCells="1408">
<Points>
<DataArray  type="Float64"  NumberOfComponents="3"  format="ascii">0 0.46875 0  0.03125 0.46875 0  0.03125 0.515625 0  0 0.515625 0  0.0625 0.46875 0  0.0625 0.515625 0  0.09375 0.46875 0  0.09375 0.515625 0  0.125 0.46875 0  0.125 0.515625 0  0.15625 0.46875 0  0.15625 0.515625 0  0.1875 0.46875 0  0.1875 0.515625 0  0.21875 0.46875 0  0.21875 0.515625 0  0.25 0.46875 0  0.25 0.515625 0  0.28125 0.46875 0  0.28125 0.515625 0  0.3125 0.46875 0  0.3125 0.515625 0  0.34375 0.46875 0  0.34375 0.515625 0  0.375 0.46875 0  0.375 0.515625 0  0.40625 0.46875 0  0.40625 0.515625 0  0.4375 0.46875 0  0.4375 0.515625 0  0.46875 0.46875 0  0.46875 0.515625 0  0.5 0.46875 0  0.5 0.515625 0  0.53125 0.46875 0  0.53125 0.515625 0  0.5625 0.46875 0  0.5625 0.515625 0  0.59375 0.46875 0  0.59375 0.515625 0  0.625 0.46875 0  0.625 0.515625 0  0.65625 0.46875 0  0.65625 0.515625 0  0.6875 0.46875 0  0.6875 0.515625 0  0.71875 0.46875 0  0.71875 0.515625 0  0.75 0.46875 0  0.75 0.515625 0  0.78125 0.46875 0  0.78125 0.515625 0  0.8125 0.46875 0  0.8125 0.515625 0  0.84375 0.46875 0  0.84375 0.515625 0  0.875 0.46875 0  0.875 0.515625 0  0.90625 0.46875 0  0.90625 0.515625 0  0.9375 0.46875 0  0.9375 0.515625 0  0.96875 0.46875 0  0.96875 0.515625 0  1 0.46875 0  1 0.515625 0  0.03125 0.5625 0  0 0.5625 0  0.0625 0.5625 0  0.09375 0.5625 0  0.125 0.5625 0  0.15625 0.5625 0  0.1875 0.5625 0  0.21875 0.5625 0  0.25 0.5625 0  0.28125 0.5625 0  0.3125 0.5625 0  0.34375 0.5625 0  0.375 0.5625 0  0.40625 0.5625 0  0.4375 0.5625 0  0.46875 0.5625 0  0.5 0.5625 0  0.53125 0.5625 0  0.5625 0.5625 0  0.59375 0.5625 0  0.625 0.5625 0  0.65625 0.5625 0  0.6875 0.5625 0  0.71875 0.5625 0  0.75 0.5625 0  0.78125 0.5625 0  0.8125 0.5625 0  0.84375 0.5625 0  0.875 0.5625 0  0.90625 0.5625 0  0.9375 0.5625 0  0.96875 0.5625 0  1 0.5625 0  0.03125 0.609375 0  0 0.609375 0  0.0625 0.609375 0  0.09375 0.609375 0  0.125 0.609375 0  0.15625 0.609375 0  0.1875 0.609375 0  0.21875 0.609375 0  0.25 0.609375 0  0.28125 0.609375 0  0.3125 0.609375 0  0.34375 0.609375 0  0.375 0.609375 0  0.40625 0.609375 0  0.4375 0.609375 0  0.46875 0.609375 0  0.5 0.609375 0  0.53125 0.609375 0  0.5625 0.609375 0  0.59375 0.609375 0  0.625 0.609375 0  0.65625 0.609375 0  0.6875 0.609375 0  0.71875 0.609375 0  0.75 0.609375 0  0.78125 0.609375 0  0.8125 0.609375 0  0.84375 0.609375 0  0.875 0.609375 0  0.90625 0.609375 0  0.9375 0.609375 0  0.96875 0.609375 0  1 0.609375 0  0.03125 0.65625 0  0 0.65625 0  0.0625 0.65625 0  0.09375 0.65625 0  0.125 0.65625 0  0.15625 0.65625 0  0.1875 0.65625 0  0.21875 0.65625 0  0.25 0.65625 0  0.28125 0.65625 0  0.3125 0.65625 0  0.34375 0.65625 0  0.375 0.65625 0  0.40625 0.65625 0  0.4375 0.65625 0  0.46875 0.65625 0  0.5 0.65625 0  0.53125 0.65625 0  0.5625 0.65625 0  0.59375 0.65625 0  0.625 0.65625 0  0.65625 0.65625 0  0.6875 0.65625 0  0.71875 0.65625 0  0.75 0.65625 0  0.78125 0.65625 0  0.8125 0.65625 0  0.84375 0.65625 0  0.875 0.65625 0  0.90625 0.65625 0  0.9375 0.65625 0  0.96875 0.65625 0  1 0.65625 0  0.03125 0.703125 0  0 0.703125 0  0.0625 0.703125 0  0.09375 0.703125 0  0.125 0.703125 0  0.15625 0.703125 0  0.1875 0.703125 0  0.21875 0.703125 0  0.25 0.703125 0  0.28125 0.703125 0  0.3125 0.703125 0  0.34375 0.703125 0  0.375 0.703125 0  0.40625 0.703125 0  0.4375 0.703125 0  0.46875 0.703125 0  0.5 0.703125 0  0.53125 0.703125 0  0.5625 0.703125 0  0.59375 0.703125 0  0.625 0.703125 0  0.65625 0.703125 0  0.6875 0.703125 0  0.71875 0.703125 0  0.75 0.703125 0  0.78125 0.703125 0  0.8125 0.703125 0  0.84375 0.703125 0  0.875 0.703125 0  0.90625 0.703125 0  0.9375 0.703125 0  0.96875 0.703125 0  1 0.703125 0  0.03125 0.75 0  0 0.75 0  0.0625 0.75 0  0.09375 0.75 0  0.125 0.75 0  0.15625 0.75 0  0.1875 0.75 0  0.21875 0.75 0  0.25 0.75 0  0.28125 0.75 0  0.3125 0.75 0  0.34375 0.75 0  0.375 0.75 0  0.40625 0.75 0  0.4375 0.75 0  0.46875 0.75 0  0.5 0.75 0  0.53125 0.75 0  0.5625 0.75 0  0.59375 0.75 0  0.625 0.75 0  0.65625 0.75 0  0.6875 0.75 0  0.71875 0.75 0  0.75 0.75 0  0.78125 0.75 0  0.8125 0.75 0  0.84375 0.75 0  0.875 0.75 0  0.90625 0.75 0  0.9375 0.75 0  0.96875 0.75 0  1 0.75 0  0.03125 0.796875 0  0 0.796875 0  0.0625 0.796875 0  0.09375 0.796875 0  0.125 0.796875 0  0.15625 0.796875 0  0.1875 0.796875 0  0.21875 0.796875 0  0.25 0.796875 0  0.28125 0.796875 0  0.3125 0.796875 0  0.34375 0.796875 0  0.375 0.796875 0  0.40625 0.796875 0  0.4375 0.796875 0  0.46875 0.796875 0  0.5 0.796875 0  0.53125 0.796875 0  0.5625 0.796875 0  0.59375 0.796875 0  0.625 0.796875 0  0.65625 0.796875 0  0.6875 0.796875 0  0.71875 0.796875 0  0.75 0.796875 0  0.78125 0.796875 0  0.8125 0.796875 0  0.84375 0.796875 0  0.875 0.796875 0  0.90625 0.796875 0  0.9375 0.796875 0  0.96875 0.796875 0  1 0.796875 0  0.03125 0.84375 0  0 0.84375 0  0.0625 0.84375 0  0.09375 0.84375 0  0.125 0.84375 0  0.15625 0.84375 0  0.1875 0.84375 0  0.21875 0.84375 0  0.25 0.84375 0  0.28125 0.84375 0  0.3125 0.84375 0  0.34375 0.84375 0  0.375 0.84375 0  0.40625 0.84375 0  0.4375 0.84375 0  0.46875 0.84375 0  0.5 0.84375 0  0.53125 0.84375 0  0.5625 0.84375 0  0.59375 0.84375 0  0.625 0.84375 0  0.65625 0.84375 0  0.6875 0.84375 0  0.71875 0.84375 0  0.75 0.84375 0  0.78125 0.84375 0  0.8125 0.84375 0  0.84375 0.84375 0  0.875 0.84375 0  0.90625 0.84375 0  0.9375 0.84375 0  0.96875 0.84375 0  1 0.84375 0  0.03125 0.890625 0  0 0.890625 0  0.0625 0.890625 0  0.09375 0.890625 0  0.125 0.890625 0  0.15625 0.890625 0  0.1875 0.890625 0  0.21875 0.890625 0  0.25 0.890625 0  0.28125 0.890625 0  0.3125 0.890625 0  0.34375 0.890625 0  0.375 0.890625 0  0.40625 0.890625 0  0.4375 0.890625 0  0.46875 0.890625 0  0.5 0.890625 0  0.53125 0.890625 0  0.5625 0.890625 0  0.59375 0.890625 0  0.625 0.890625 0  0.65625 0.890625 0  0.6875 0.890625 0  0.71875 0.890625 0  0.75 0.890625 0  0.78125 0.890625 0  0.8125 0.890625 0  0.84375 0.890625 0  0.875 0.890625 0  0.90625 0.890625 0  0.9375 0.890625 0  0.96875 0.890625 0  1 0.890625 0  0.03125 0.9375 0  0 0.9375 0  0.0625 0.9375 0  0.09375 0.9375 0  0.125 0.9375 0  0.15625 0.9375 0  0.1875 0.9375 0  0.21875 0.9375 0  0.25 0.9375 0  0.28125 0.9375 0  0.3125 0.9375 0  0.34375 0.9375 0  0.375 0.9375 0  0.40625 0.9375 0  0.4375 0.9375 0  0.46875 0.9375 0  0.5 0.9375 0  0.53125 0.9375 0  0.5625 0.9375 0  0.59375 0.9375 0  0.625 0.9375 0  0.65625 0.9375 0  0.6875 0.9375 0  0.71875 0.9375 0  0.75 0.9375 0  0.78125 0.9375 0  0.8125 0.9375 0  0.84375 0.9375 0  0.875 0.9375 0  0.90625 0.9375 0  0.9375 0.9375 0  0.96875 0.9375 0  1 0.9375 0  0.03125 0.984375 0  0 0.984375 0  0.0625 0.984375 0  0.09375 0.984375 0  0.125 0.984375 0  0.15625 0.984375 0  0.1875 0.984375 0  0.21875 0.984375 0  0.25 0.984375 0  0.28125 0.984375 0  0.3125 0.984375 0  0.34375 0.984375 0  0.375 0.984375 0  0.40625 0.984375 0  0.4375 0.984375 0  0.46875 0.984375 0  0.5 0.984375 0  0.53125 0.984375 0  0.5625 0.984375 0  0.59375 0.984375 0  0.625 0.984375 0  0.65625 0.984375 0  0.6875 0.984375 0  0.71875 0.984375 0  0.75 0.984375 0  0.78125 0.984375 0  0.8125 0.984375 0  0.84375 0.984375 0  0.875 0.984375 0  0.90625 0.984375 0  0.9375 0.984375 0  0.96875 0.984375 0  1 0.984375 0  0.03125 1.03125 0  0 1.03125 0  0.0625 1.03125 0  0.09375 1.03125 0  0.125 1.03125 0  0.15625 1.03125 0  0.1875 1.03125 0  0.21875 1.03125 0  0.25 1.03125 0  0.28125 1.03125 0  0.3125 1.03125 0  0.34375 1.03125 0  0.375 1.03125 0  0.40625 1.03125 0  0.4375 1.03125 0  0.46875 1.03125 0  0.5 1.03125 0  0.53125 1.03125 0  0.5625 1.03125 0  0.59375 1.03125 0  0.625 1.03125 0  0.65625 1.03125 0  0.6875 1.03125 0  0.71875 1.03125 0  0.75 1.03125 0  0.78125 1.03125 0  0.8125 1.03125 0  0.84375 1.03125 0  0.875 1.03125 0  0.90625 1.03125 0  0.9375 1.03125 0  0.96875 1.03125 0  1 1.03125 0  0.03125 1.078125 0  0 1.078125 0  0.0625 1.078125 0  0.09375 1.078125 0  0.125 1.078125 0  0.15625 1.078125 0  0.1875 1.078125 0  0.21875 1.078125 0  0.25 1.078125 0  0.28125 1.078125 0  0.3125 1.078125 0  0.34375 1.078125 0  0.375 1.078125 0  0.40625 1.078125 0  0.4375 1.078125 0  0.46875 1.078125 0  0.5 1.078125 0  0.53125 1.078125 0  0.5625 1.078125 0  0.59375 1.078125 0  0.625 1.078125 0  0.65625 1.078125 0  0.6875 1.078125 0  0.71875 1.078125 0  0.75 1.078125 0  0.78125 1.078125 0  0.8125 1.078125 0  0.84375 1.078125 0  0.875 1.078125 0  0.90625 1.078125 0  0.9375 1.078125 0  0.96875 1.078125 0  1 1.078125 0  0.03125 1.125 0  0 1.125 0  0.0625 1.125 0  0.09375 1.125 0  0.125 1.125 0  0.15625 1.125 0  0.1875 1.125 0  0.21875 1.125 0  0.25 1.125 0  0.28125 1.125 0  0.3125 1.125 0  0.34375 1.125 0  0.375 1.125 0  0.40625 1.125 0  0.4375 1.125 0  0.46875 1.125 0  0.5 1.125 0  0.53125 1.125 0  0.5625 1.125 0  0.59375 1.125 0  0.625 1.125 0  0.65625 1.125 0  0.6875 1.125 0  0.71875 1.125 0  0.75 1.125 0  0.78125 1.125 0  0.8125 1.125 0  0.84375 1.125 0  0.875 1.125 0  0.90625 1.125 0  0.9375 1.125 0  0.96875 1.125 0  1 1.125 0  0.03125 1.171875 0  0 1.171875 0  0.0625 1.171875 0  0.09375 1.171875 0  0.125 1.171875 0  0.15625 1.171875 0  0.1875 1.171875 0  0.21875 1.171875 0  0.25 1.171875 0  0.28125 1.171875 0  0.3125 1.171875 0  0.34375 1.171875 0  0.375 1.171875 0  0.40625 1.171875 0  0.4375 1.171875 0  0.46875 1.171875 0  0.5 1.171875 0  0.53125 1.171875 0  0.5625 1.171875 0  0.59375 1.171875 0  0.625 1.171875 0  0.65625 1.171875 0  0.6875 1.171875 0  0.71875 1.171875 0  0.75 1.171875 0  0.78125 1.171875 0  0.8125 1.171875 0  0.84375 1.171875 0  0.875 1.171875 0  0.90625 1.171875 0  0.9375 1.171875 0  0.96875 1.171875 0  1 1.171875 0  0.03125 1.21875 0  0 1.21875 0  0.0625 1.21875 0  0.09375 1.21875 0  0.125 1.21875 0  0.15625 1.21875 0  0.1875 1.21875 0  0.21875 1.21875 0  0.25 1.21875 0  0.28125 1.21875 0  0.3125 1.21875 0  0.34375 1.21875 0  0.375 1.21875 0  0.40625 1.21875 0  0.4375 1.21875 0  0.46875 1.21875 0  0.5 1.21875 0  0.53125 1.21875 0  0.5
[...]
<PointData  Scalars="p"> 
<DataArray  type="Float64"  Name="p"  format="ascii">0.0000000000000000e+00  -4.8474680407793007e-03  -5.1622945634972172e-03  0.0000000000000000e+00  -8.5834604035053483e-03  -9.1278016330856634e-03  -1.1340755422929781e-02  -1.2053346904675832e-02  -1.3246742590840440e-02  -1.4077649041727718e-02  -1.4417358063932477e-02  -1.5323375812907481e-02  -1.4955770211755573e-02  -1.5898580307288007e-02  -1.4952850791354154e-02  -1.5898301858049423e-02  -1.4488410634860538e-02  -1.5406118944946853e-02  -1.3632627209383344e-02  -1.4495844016050266e-02  -1.2447552357112859e-02  -1.3233002330077129e-02  -1.0988514452426181e-02  -1.1676359157102065e-02  -9.3054709801912890e-03  -9.8791971287937284e-03  -7.4441942017809334e-03  -7.8905914316397575e-03  -5.4473831021587277e-03  -5.7564640243981313e-03  -3.3556422295199480e-03  -3.5206394982702427e-03  -1.2083986528505647e-03  -1.2257354888500296e-03  9.5526639339058212e-04  1.0859391418219725e-03  3.0958037954192815e-03  3.3715747966810805e-03  5.1724148427639768e-03  5.5870249587230154e-03  7.1422516372811771e-03  7.6860117088523540e-03  8.9596051955012322e-03  9.6192732789006172e-03  1.0575039526355407e-02  1.1333722251683115e-02  1.1934483012183951e-02  1.2771511923080701e-02  1.2978229646274094e-02  1.3869086490743010e-02  1.3639864921695640e-02  1.4556092481752008e-02  1.3845070634307169e-02  1.4754256919972437e-02  1.3510363118730663e-02  1.4376127231959598e-02  1.2541741159191379e-02  1.3323838810302038e-02  1.0833341735656562e-02  1.1487910229014821e-02  8.2660372580548435e-03  8.7464356323710898e-03  4.7057231689111691e-03  4.9651437653396467e-03  0.0000000000000000e+00  0.0000000000000000e+00  -5.9438522202853302e-03  0.0000000000000000e+00  -1.0511568758238448e-02  -1.3886574880340606e-02  -1.6228404109087984e-02  -1.7676138099416740e-02  -1.8351519276092916e-02  -1.8361355085435634e-02  -1.7799958343214430e-02  -1.6750958992096304e-02  -1.5289283180280442e-02  -1.3482548110014932e-02  -1.1392688543544893e-02  -9.0770604678439473e-03  -6.5897746526738365e-03  -3.9826323001121060e-03  -1.3062467397428532e-03  1.3891132582253515e-03  4.0525207257346846e-03  6.6315713135803025e-03  9.0714295741850075e-03  1.1313999576080659e-02  1.3296949494944603e-02  1.4952838661037129e-02  1.6208045668933635e-02  1.6981765393872472e-02  1.7184727036554458e-02  1.6717961307548778e-02  1.5471247836502562e-02  1.3321632614734980e-02  1.0131729031188077e-02  5.7481733653983293e-03  0.0000000000000000e+00  -7.1545848361412867e-03  0.0000000000000000e+00  -1.2641299032281684e-02  -1.6691052802360586e-02  -1.9499981738643150e-02  -2.1236447508541281e-02  -2.2046024737660458e-02  -2.2055970704334085e-02  -2.1378167223860645e-02  -2.0112263031464087e-02  -1.8347480573304476e-02  -1.6164998405946079e-02  -1.3639165408450745e-02  -1.0839411410368765e-02  -7.8311676265342637e-03  -4.6774779762915478e-03  -1.4398182889407412e-03  1.8205054650255240e-03  5.0415324946452966e-03  8.1593714499163163e-03  1.1107356433955055e-02  1.3814821310249303e-02  1.6206234576504081e-02  1.8199947887224937e-02  1.9707248536246044e-02  2.0630918653673148e-02  2.0863991250925463e-02  2.0287859221387716e-02  1.8770387219330765e-02  1.6163167296448133e-02  1.2298404898324197e-02  6.9844561426164412e-03  0.0000000000000000e+00  -8.8011531244120197e-03  0.0000000000000000e+00  -1.5518071507875396e-02  -2.0454123697796166e-02  -2.3862193009637312e-02  -2.5955518267189254e-02  -2.6916526209115440e-02  -2.6902694480035509e-02  -2.6052090628594437e-02  -2.4486516599295273e-02  -2.2315333177578341e-02  -1.9637136411567738e-02  -1.6542735990962721e-02  -1.3116107828301781e-02  -9.4369074040924206e-03  -5.5811680590292911e-03  -1.6235215608096409e-03  2.3621264587028578e-03  6.3005913084271054e-03  1.0114641781295704e-02  1.3723168791529305e-02  1.7040329508003813e-02  1.9973793458380008e-02  2.2423797626333120e-02  2.4281299594633036e-02  2.5426732300622139e-02  2.5727682901865119e-02  2.5036846415868664e-02  2.3188581150312471e-02  1.9995123846703232e-02  1.5240815842288794e-02  8.6747315642050193e-03  0.0000000000000000e+00  -1.0924566413158199e-02  0.0000000000000000e+00  -1.9205537353514407e-02  -2.5248497659926216e-02  -2.9386682588098109e-02  -3.1897824671879696e-02  -3.3016132982443339e-02  -3.2942234602331540e-02  -3.1849557256569794e-02  -2.9890610479465788e-02  -2.7200219425342034e-02  -2.3900024083272235e-02  -2.0100062985822488e-02  -1.5902509104227240e-02  -1.1402429957388638e-02  -6.6912530165594269e-03  -1.8572165793124388e-03  3.0113431208192189e-03  7.8255232382523059e-03  1.2492788282858033e-02  1.6916329093770967e-02  2.0992254527386119e-02  2.4608699437404472e-02  2.7643151862874898e-02  2.9961170276990554e-02  3.1413443513054716e-02  3.1833602625312749e-02  3.1034226999434495e-02  2.8802713372112140e-02  2.4894781683443043e-02  1.9026456410658928e-02  1.0862333531219103e-02  0.0000000000000000e+00  -1.3592759850465690e-02  0.0000000000000000e+00  -2.3813254095903222e-02  -3.1205334562280501e-02  -3.6211998437696256e-02  -3.9198517065314700e-02  -4.0470218589139288e-02  -4.0285354138377090e-02  -3.8865447388935305e-02  -3.6402291835608371e-02  -3.3064455224216950e-02  -2.9001016819658772e-02  -2.4346488834859084e-02  -1.9222727268585125e-02  -1.3743467239230103e-02  -8.0152147818005649e-03  -2.1419290377128605e-03  3.7746248490951634e-03  9.6300444731216416e-03  1.5317006985574011e-02  2.0720639017307352e-02  2.5717897131426505e-02  3.0173366615138055e-02  3.3937975005573766e-02  3.6844995986598954e-02  3.8707649159180200e-02  3.9314443339516093e-02  3.8424732169760521e-02  3.5761781333587837e-02  3.1004337534861464e-02  2.3774531687246980e-02  1.3621699270612884e-02  0.0000000000000000e+00  -1.6895814976352397e-02  0.0000000000000000e+00  -2.9486214899515997e-02  -3.8498707491375142e-02  -4.4522013074555569e-02  -4.8038122129919036e-02  -4.9446451243532898e-02  -4.9081867081239898e-02  -4.7228258856535719e-02  -4.4128815130091911e-02  -3.9993828860228162e-02  -3.5007191922850810e-02  -2.9331203480041111e-02  -2.3111691414664671e-02  -1.6481029461165291e-02  -9.5633486622324175e-03  -2.4762696546965219e-03  4.6631651754440537e-03  1.1737631942685456e-02  1.8622964411635076e-02  2.5187534153939109e-02  3.1285799516450843e-02  3.6757047073946142e-02  4.1419583698932526e-02  4.5068046064003997e-02  4.7467671634949506e-02  4.8349338307894972e-02  4.7402200661586957e-02  4.4264825419320711e-02  3.8513037193384600e-02  2.9643567185219450e-02  1.7051578296238802e-02  0.0000000000000000e+00  -2.0942769231748530e-02  0.0000000000000000e+00  -3.6398434612487665e-02  -4.7334848035484919e-02  -5.4531641260168004e-02  -5.8623591958518489e-02  -6.0133379508693477e-02  -5.9495554313520556e-02  -5.7074874575756912e-02  -5.3179798494138932e-02  -4.8073214572340095e-02  -4.1980811789417614e-02  -3.5098247820929671e-02  -2.7597171268763612e-02  -1.9631004148976866e-02  -1.1339752716866307e-02  -2.8558337466593050e-03  5.6921944960822745e-03  1.4172830182300847e-02  2.2448867193839137e-02  3.0369523366852096e-02  3.7768050495496606e-02  4.4453618109689751e-02  5.0208093941225947e-02  5.4778254018187408e-02  5.7870351568170636e-02  5.9141440488764567e-02  5.8190244160878903e-02  5.4544535893862281e-02  4.7645019583232875e-02  3.6823169596244508e-02  2.1271060062090574e-02  0.0000000000000000e+00  -2.5860694860910614e-02  0.0000000000000000e+00  -4.4749413148210147e-02  -5.7945435634222733e-02  -6.6475654629548950e-02  -7.1173508471032418e-02  -7.2721203654845287e-02  -7.1682705190188281e-02  -6.8526084348471628e-02  -6.3643041828492536e-02  -5.7361207117042838e-02  -4.9957211464957456e-02  -4.1664675173936086e-02  -3.2684078619078703e-02  -2.3189402999303568e-02  -1.3336075357912137e-02  -3.2677626028734135e-03  6.8768234418374163e-03  1.6956795744837196e-02  2.6822055969045161e-02  3.6306638804707275e-02  4.5219996670509813e-02  5.3341195050756296e-02  6.0408526853391938e-02  6.6113308606365218e-02  7.0088207640596700e-02  7.1898107398346303e-02  7.1025521353538276e-02  6.6855198639620750e-02  5.8651644178440987e-02  4.5530711253257423e-02  2.6419097837591627e-02  0.0000000000000000e+00  -3.1794403190178587e-02  0.0000000000000000e+00  -5.4761357349269554e-02  -7.0580050686198575e-02  -8.0596534140651543e-02  -8.5900107147787938e-02  -8.7380149745121316e-02  -8.5766200292400507e-02  -8.1659843481056385e-02  -7.5556034200327679e-02  -6.7863915634658156e-02  -5.8918950636241828e-02  -4.8999568828513168e-02  -3.8335038824085177e-02  -2.7119917642059146e-02  -1.5521039091932982e-02  -3.6892826536910873e-03  8.2316995426183412e-03  2.0096624869629435e-02  3.1747421608510656e-02  4.3005262610401773e-02  5.3659121379649267e-02  6.3454656649141850e-02  7.2084426125173837e-02  7.9172480901975886e-02  8.4264338329079966e-02  8.6808239617333277e-02  8.6140238693444393e-02  8.1459997569876180e-02  7.1804316008527602e-02  5.6008345552508713e-02  3.2654405987732359e-02  0.0000000000000000e+00  -3.8904713672900895e-02  0.0000000000000000e+00  -6.6672260878112705e-02  -8.5493032752758200e-02  -9.7122786229761310e-02  -1.0298146659159943e-01  -1.0422545502510946e-01  -1.0179856030646632e-01  -9.6471048271869586e-02  -8.8869074041334650e-02  -7.9498499843995513e-02  -6.8766384979369030e-02  -5.6997204163590852e-02  -4.4451920072111115e-02  -3.1339264520491121e-02  -1.7833985450381222e-02  -4.0857558165574197e-03  9.7645229643640342e-03  2.3574490829897245e-02  3.7186799731927594e-02  5.0415337052887282e-02  6.3032535509019383e-02  7.4753602776748751e-02  8.5219346904869139e-02  9.3980505641624107e-02  1.0047492725272114e-01  1.0400950817047031e-01  1.0373290248825183e-01  9.8608776554892932e-02  8.7378489477094187e-02  6.8513957035557099e-02  4.0151531220663415e-02  0.0000000000000000e+00  -4.7364890325208672e-02  0.0000000000000000e+00  -8.0724638729971224e-02  -1.0292060257920826e-01  -1.1623471660638662e-01  -1.2251536663920012e-01  -1.2326483782765818e-01  -1.1970336985074717e-01  -1.1281547325057034e-01  -1.0338932278895843e-01  -9.2047075770410214e-02  -7.9275134355811627e-02  -6.5447620955244326e-02  -5.0851235726226865e-02  -3.5704891030628218e-02  -2.0178776993990802e-02  -4.4138146325300538e-03  1.1465491481901947e-02  2.7329798362342405e-02  4.3034068665363384e-02  5.8395792370608365e-02  7.3178750799331546e-02  8.7072043075274941e-02  9.9666140757584981e-02  1.1042794882450734e-01  1.1867243245549762e-01  1.2353117688860320e-01  1.2391972818721390e-01  1.1849832835845711e-01  1.0562697585881940e-01  8.3306124542112878e-02  4.9095692287684095e-02  0.0000000000000000e+00  -5.7355945368497432e-02  0.0000000000000000e+00  -9.7147313372495145e-02  -1.2304381811638261e-01  -1.3800798551493265e-01  -1.4444725137208111e-01  -1.4431610112250651e-01  -1.3919109590722392e-01  -1.3032734575906740e-01  -1.1870902441570497e-01  -1.0509288095741935e-01  -9.0048750907049863e-02  -7.3997665546075536e-02  -5.7242230367844878e-02  -3.9999654547008733e-02  -2.2422959241755358e-02  -4.6271286337080915e-03  1.3290625306089049e-02  3.1233913435105006e-02  4.9081013795110560e-02  6.6670229446602267e-02  8.3769927301631339e-02  1.0005263559434278e-01  1.1506470762536615e-01  1.2818609059214109e-01  1.3859225843518932e-01  1.4520738242818873e-01  1.4665575843279724e-01  1.4121139828347110e-01  1.2673844512380991e-01  1.0062297181700190e-01  5.9676583704353470e-02  0.0000000000000000e+00  -6.9057533465197121e-02  0.0000000000000000e+00  -1.1612071317581031e-01  -1.4592105271182071e-01  -1.6231448968535794e-01  -1.6844944080299487e-01  -1.6687695383807977e-01  -1.5963183823104102e-01  -1.4830484914605874e-01  -1.3410872353447859e-01  -1.1794493912693602e-01  -1.0046251458272659e-01  -8.2114498113439377e-02  -6.3204157443018522e-02  -4.3925434979186086e-02  -2.4397860679033344e-02  -4.6919671088812755e-03  1.5142663188496495e-02  3.5055666287845080e-02  5.4973110212761286e-02  7.4768514982309187e-02  9.4236080887020651e-02  1.1305209996114288e-01  1.3073146649906217e-01  1.4657705073255475e-01  1.5961694438966298e-01  1.6853662803532043e-01  1.7160747465314560e-01  1.6661051729936910e-01  1.5076431361678724e-01  1.2064286084001657e-01  7.2076288537088015e-02  0.0000000000000000e+00  -8.2628035783412240e-02  0.0000000000000000e+00  -1.3770731537074427e-01  -1.7135856047514791e-01  -1.8864307297110558e-01  -1.9371479936631025e-01  -1.8991674053873298e-01  -1.7986661304679760e-01  -1.6555297575765449e-01  -1.4843637244376362e-01  -1.2955285931478214e-01  -1.0960728841989315e-01  -8.9055550365185893e-02  -6.8172553806482225e-02  -4.7103826914347023e-02  -2.5910927106112237e-02  -4.6022789584894124e-03  1.6839562207803992e-02  3.8429453776725964e-02  6.0157855508420364e-02  8.1959603938824871e-02  1.0367838372949820e-01  1.2502436454687338e-01  1.4551335420909681e-01  1.6439605535166008e-01  1.8056720353414707e-01  1.9246026222591880e-01  1.9793270137309346e-01  1.9415024994969532e-01  1.7748166404306009e-01  1.4341037031774928e-01  8.6446595795781567e-02  0.0000000000000000e+00  -9.8159827235414082e-02  0.0000000000000000e+00  -1.6170442812751945e-01  -1.9865311968771679e-01  -2.1576845176281537e-01  -2.1860431968275373e-01  -2.1155153282505609e-01  -1.9793823011438297e-01  -1.8018329234427446e-01  -1.5997208113647660e-01  -1.3842533079181055e-01  -1.1624959640224296e-01  -9.3854012237771525e-02  -7.1443793317363044e-02  -4.9087196407409120e-02  -2.6763374918630962e-02  -4.4011437068107789e-03  1.8095041572143738e-02  4.0822231779137040e-02  6.3850058189856548e-02  8.7195826342487112e-02  1.1078619836294991e-01  1.3440284337540634e-01  1.5761465265574240e-01  1.7967760065650734e-01  1.9940614690519295e-01  2.1501190193692865e-01  2.2391204830948247e-01  2.2253207258819402e-01  2.0613114819721293e-01  1.6868786859309082e-01  1.0286569396610631e-01  0.0000000000000000e+00  -1.1556967298319264e-01  0.0000000000000000e+00  -1.8731185698054967e-01  -2.2606076340137685e-01  -2.4113075617706334e-01  -2.4005711913447575e-01  -2.2856207127652717e-01  -2.1074618294702513e-01  -1.8939608877592873e-01  -1.6631055168781245e-01  -1.4258316438327326e-01  -1.1882637554456604e-01  -9.5335204865484219e-02  -7.2199352390215049e-02  -4.9380737668012681e-02  -2.6764164140053084e-02  -4.1908350623235929e-03  1.8517440662493515e-02  4.1537827472837553e-02  6.5029283328442961e-02  8.9105407665145922e-02  1.1380015817383288e-01  1.3901602926727871e-01  1.6444211031203168e-01  1.8943631953798851e-01  2.1285190309411930e-01  2.3279674688657548e-01  2.4632328424456798e-01  2.4906458668434553e-01  2.3488005761840622e-01  1.9563426642318860e-01  1.2124118354149613e-01  0.0000000000000000e+00  -1.3430019532878859e-01  0.0000000000000000e+00  -2.1232904408141287e-01  -2.4967089429291425e-01  -2.5969951275158137e-01  -2.5267032575414972e-01  -2.3577187005928829e-01  -2.1369823040091829e-01  -1.8933198660502101e-01  -1.6433652187946760e-01  -1.3959308592140698e-01  -1.1549991459838854e-01  -9.2167447088891644e-02  -6.9538250838555679e-02  -4.7458917708504744e-02  -2.5724001303616288e-02  -4.1012702336274331e-03  1.7652806667301641e-02  3.9782534557471758e-02  6.2520250775043779e-02  8.6072043051430958e-02  1.1059027258148586e-01  1.3612902841969082e-01  1.6256971349745492e-01  1.8949500213813855e-01  2.1598836201624558e-01  2.4031838534034461e-01  2.5946668303780818e-01  2.6847676621418620e-01  2.5968021117945994e-01  2.2203246991803796e-01  1.4106243552885964e-01  0.0000000000000000e+00  -1.5239215274082524e-01  0.0000000000000000e+00  -2.3108581404390591e-01  -2.6104161541138121e-01  -2.6207779058111103e-01  -2.4754120175440131e-01  -2.2553036384099048e-01  -2.0060836799681511e-01  -1.7517793236838308e-01  -1.5039582438833465e-01  -1.2672824212189823e-01  -1.0426939505737808e-01  -8.2920459319171247e-02  -6.2486919576645532e-02  -4.2729298237859294e-02  -2.3387892202288301e-02  -4.1958514581061455e-03  1.5116461133000405e-02  3.4819498927804865e-02  5.5182879665714363e-02  7.6469010007557875e-02  9.8921591777902204e-02  1.2273843346688906e-01  1.4801853340730417e-01  1.7466460251056981e-01  2.0220130245020135e-01  2.2944626502067092e-01  2.5392889164909704e-01  2.7090441534587484e-01  2.7181064172899544e-01  2.4226832467679510e-01  1.6064973232766824e-01  0.0000000000000000e+00  -1.6304816625009941e-01  0.0000000000000000e+00  -2.2897428507757966e-01  -2.4281804244709890e-01  -2.3227850329387373e-01  -2.1174927305242658e-01  -1.8808784748773050e-01  -1.6434927609752378e-01  -1.4176507522411652e-01  -1.2071728630179240e-01  -1.0120290101333672e-01  -8.3052683282885842e-02  -6.6033526232589207e-02  -4.9893875197856111e-02  -3.4381967212780244e-02  -1.9252444008319471e-02  -4.2655341798729885e-03  1.0815806718100337e-02  2.6230153703740364e-02  4.2221325395113453e-02  5.9041868094996598e-02  7.6952044529317518e-02  9.6213636999700911e-02  1.1707068594703178e-01  1.3970427415103248e-01  1.6413380045265197e-01  1.9000286908846739e-01  2.1612149704982758e-01  2.3947227605675681e-01  2.5307459706473656e-01  2.4163833681012972e-01  1.7428778403927295e-01  0.0000000000000000e+00  -1.4029927598725228e-01  0.0000000000000000e+00  -1.7044137124020722e-01  -1.6477789978429264e-01  -1.4893507236752090e-01  -1.3122552279882457e-01  -1.1424047317087821e-01  -9.8673480343939302e-02  -8.4583566071212715e-02  -7.1824121765138652e-02  -6.0192637333820936e-02  -4.9482495226301527e-02  -3.9499911614696979e-02  -3.0067527346883911e-02  -2.1022677485143158e-02  -1.2213523120488935e-02  -3.4954922138729569e-03  5.2731672837454321e-03  1.4235678271203474e-02  2.3540931312648550e-02  3.3347353941789247e-02  4.3827267799624280e-02  5.5169615293510166e-02  6.7581542872672540e-02  8.1286038329760654e-02  9.6507231969405638e-02  1.1342847653344111e-01  1.3207428150076655e-01  1.5196323857624311e-01  1.7102728883955534e-01  1.8190917950148228e-01  1.5811830487816977e-01  0.0000000000000000e+00  0.0000000000000000e+00  0.0000000000000000e+00  0.0000000000000000e+00  0.0000000000000000e+00  0.0000000000000000e+00  0.0000000000000000e+00  0.0000000000000000e+00  0.0000000000000000e+00  0.0000000000000000e+00  0.0000000000000000e+00  0.0000000000000000e+00  0.0000000000000000e+00  0.0000000000000000e+00  0.0000000000000000e+00  0.0000000000000000e+00  0.0000000000000000e+00  0.0000000000000000e+00  0.0000000000000000e+00  0.0000000000000000e+00  0.0000000000000000e+00  0.0000000000000000e+00  0.0000000000000000e+00  0.0000000000000000e+00  0.0000000000000000e+00  0.0000000000000000e+00  0.0000000000000000e+00  0.0000000000000000e+00  0.0000000000000000e+00  0.0000000000000000e+00  0.0000000000000000e+00  0.0000000000000000e+00  0.0000000000000000e+00  0.0000000000000000e+00  </DataArray> 
</PointData> 
</Piece>
</UnstructuredGrid>
</VTKFile>