<?xml version="1.0"?>
<VTKFile type="UnstructuredGrid"  version="0.1"  >
<UnstructuredGrid>
<Piece  NumberOfPoints="825" NumberOfCells="1536">
<Points>
<DataArray  type="Float64"  NumberOfComponents="3"  format="ascii">-1.04400350529127e-21 0.5 0  0.06249999997932304 0.5000000007575425 0  0.0624999981806928 0.5625000018135555 0  -3.182319237771906e-09 0.5625000001969204 0  0.1249999998091716 0.5000000012191734 0  0.1249999985608977 0.5625000021984192 0  0.1874999994053463 0.5000000015170626 0  0.1874999983538506 0.5625000021381193 0  0.2499999987333424 0.5000000015657404 0  0.2499999977716356 0.562500001834162 0  0.3124999976776451 0.5000000011271295 0  0.3124999968433895 0.5625000011419884 0  0.3749999957894819 0.4999999998537588 0  0.3749999954900199 0.5625000000802632 0  0.4374999937695428 0.4999999986906302 0  0.4374999939778676 0.5624999990152844 0  0.4999999917181358 0.4999999973906226 0  0.4999999925069821 0.5624999978325667 0  0.5624999896410028 0.4999999956219841 0  0.5624999911824194 0.5624999967209048 0  0.6249999889389138 0.4999999952947595 0  0.6249999903649587 0.5624999963282183 0  0.687499989170244 0.4999999958358909 0  0.6874999900840144 0.5624999961576861 0  0.7499999886872132 0.4999999947925894 0  0.7499999899291721 0.5624999957429608 0  0.8124999890273434 0.4999999949595371 0  0.812499990080305 0.56249999567563 0  0.8749999898081962 0.4999999952080296 0  0.8749999904733767 0.5624999954654701 0  0.9374999897392051 0.4999999939465964 0  0.9374999907987609 0.5624999949477808 0  0.9999999904911754 0.4999999940573921 0  0.9999999913102997 0.5624999947930354 0  1.062499991506051 0.4999999941685109 0  1.062499991941401 0.5624999944845159 0  1.124999991552251 0.4999999928508671 0  1.124999992421181 0.5624999938946901 0  1.187499992337291 0.4999999928335443 0  1.187499993003658 0.5624999936951044 0  1.249999993443245 0.4999999930373443 0  1.249999993652411 0.5624999934452415 0  1.312499993551044 0.4999999919288372 0  1.312499994100413 0.5624999930073378 0  1.374999994266474 0.4999999920947679 0  1.374999994578612 0.5624999930015274 0  1.437499995118411 0.4999999924238998 0  1.437499995045902 0.5624999930585961 0  1.499999995243005 0.4999999920696012 0  1.499999995282996 0.5624999932433259 0  1.562499995844369 0.4999999932964707 0  1.562499995553776 0.5624999940855799 0  1.624999996704055 0.4999999949159756 0  1.624999995907154 0.5624999951363797 0  1.68749999735327 0.4999999959772848 0  1.687499996186459 0.5624999962232206 0  1.749999998253193 0.4999999974059918 0  1.749999996498477 0.5624999975117226 0  1.812499999137027 0.4999999985263271 0  1.812499996783051 0.5624999987477132 0  1.874999999748069 0.4999999992354425 0  1.87499999689821 0.562500000045124 0  1.937500000097289 0.4999999997314839 0  1.937499997095205 0.562500001721399 0  2 0.5 0  1.999999999494775 0.562500003613714 0  0.06249999680988501 0.6250000020639265 0  -4.127480658160303e-09 0.6250000008985898 0  0.1249999973005439 0.6250000024613365 0  0.1874999973135401 0.6250000023700668 0  0.249999996942009 0.6250000019680653 0  0.3124999962555287 0.6250000012858089 0  0.3749999952921334 0.6250000003934459 0  0.437499994180865 0.6249999994222135 0  0.4999999930702999 0.6249999984346489 0  0.5624999920614836 0.6249999975769125 0  0.6249999913103698 0.6249999970249636 0  0.6874999909046177 0.6249999966673004 0  0.7499999907447956 0.624999996363978 0  0.812499990799749 0.6249999961320641 0  0.8749999910483363 0.6249999958731532 0  0.9374999913809987 0.6249999955534777 0  0.9999999917966854 0.6249999952655723 0  1.062499992293528 0.6249999949422348 0  1.124999992780201 0.6249999945715421 0  1.187499993264439 0.6249999942682531 0  1.249999993754851 0.6249999939950087 0  1.312499994171245 0.6249999937539702 0  1.374999994519582 0.6249999936621109 0  1.437499994802246 0.6249999937228531 0  1.499999994965816 0.6249999939993136 0  1.562499995064352 0.6249999945973213 0  1.624999995148487 0.6249999954434112 0  1.687499995196662 0.6249999964719808 0  1.749999995228663 0.6249999976783959 0  1.812499995256559 0.6249999990243893 0  1.874999995325964 0.6250000005532772 0  1.937499995755674 0.6250000022418639 0  1.999999996967045 0.6250000032313514 0  0.06249999596153003 0.687500001978703 0  -4.557510480875384e-09 0.6875000011766479 0  0.1249999963402782 0.687500002328654 0  0.1874999964300468 0.6875000022691523 0  0.2499999962212316 0.6875000019033876 0  0.3124999957504075 0.6875000013042115 0  0.3749999950697586 0.6875000005454711 0  0.4374999942635993 0.6874999997123102 0  0.4999999934291843 0.6874999988846818 0  0.5624999926569865 0.6874999981551184 0  0.6249999920433837 0.6874999975927291 0  0.6874999916495468 0.6874999971752447 0  0.7499999914662504 0.6874999968441807 0  0.8124999914695638 0.68749999656043 0  0.874999991628716 0.6874999962822359 0  0.9374999918939414 0.6874999959901386 0  0.9999999922368388 0.6874999956926788 0  1.062499992633649 0.6874999953828413 0  1.124999993043839 0.6874999950664193 0  1.187499993446562 0.6874999947747675 0  1.249999993825734 0.6874999945228549 0  1.31249999414862 0.6874999943336888 0  1.37499999439868 0.6874999942538033 0  1.437499994565992 0.6874999943222535 0  1.499999994639793 0.6874999945844158 0  1.562499994639911 0.6874999950790077 0  1.624999994594722 0.6874999957984741 0  1.687499994521022 0.6874999967176489 0  1.749999994446477 0.6874999978149803 0  1.81249999441476 0.687499999059121 0  1.87499999451025 0.6875000003906752 0  1.937499994863572 0.6875000016074 0  1.999999995368124 0.6875000022989541 0  0.06249999543483342 0.7500000017574635 0  -4.827271094151354e-09 0.7500000012161754 0  0.1249999956738084 0.7500000020319225 0  0.1874999957598612 0.7500000020008357 0  0.2499999956445347 0.7500000017075364 0  0.312499995332554 0.7500000012130111 0  0.3749999948586701 0.7500000005829015 0  0.4374999942795139 0.7499999998858162 0  0.4999999936631296 0.7499999991890909 0  0.5624999930797374 0.7499999985549418 0  0.6249999925961602 0.7499999980228588 0  0.6874999922584945 0.7499999975923732 0  0.749999992079837 0.7499999972373197 0  0.8124999920514875 0.7499999969273117 0  0.8749999921516293 0.7499999966353544 0  0.9374999923500925 0.7499999963456639 0  0.9999999926188854 0.7499999960539118 0  1.06249999293126 0.7499999957599766 0  1.124999993258618 0.7499999954715673 0  1.187499993577022 0.7499999952054259 0  1.249999993865319 0.749999994980645 0  1.312499994101602 0.7499999948217172 0  1.374999994269501 0.749999994760733 0  1.437499994359429 0.749999994831706 0  1.499999994370062 0.7499999950675214 0  1.562499994314267 0.7499999954911515 0  1.624999994214297 0.7499999961051994 0  1.687499994096352 0.7499999968948637 0  1.7499999939944 0.7499999978309753 0  1.812499993952916 0.7499999988611825 0  1.874999994022387 0.7499999998877713 0  1.937499994215307 0.7500000007432429 0  1.999999994398119 0.7500000012718845 0  0.06249999509050527 0.8125000015011875 0  -5.029740378911408e-09 0.8125000011443611 0  0.1249999952234382 0.8125000016992473 0  0.1874999952804834 0.8125000016802728 0  0.2499999952115601 0.8125000014531619 0  0.3124999950051721 0.8125000010572226 0  0.3749999946781712 0.8125000005435373 0  0.4374999942667722 0.8124999999667782 0  0.4999999938184124 0.8124999993797635 0  0.5624999933845087 0.8124999988274115 0  0.6249999930132677 0.8124999983380415 0  0.6874999927403742 0.8124999979178791 0  0.7499999925828124 0.8124999975560105 0  0.8124999925405343 0.8124999972342521 0  0.8749999926010219 0.8124999969348998 0  0.9374999927441655 0.8124999966458074 0  0.9999999929471426 0.8124999963616555 0  1.062499993186279 0.8124999960830117 0  1.124999993437777 0.812499995816662 0  1.187499993679589 0.8124999955753133 0  1.249999993891804 0.8124999953761116 0  1.312499994056833 0.8124999952405223 0  1.374999994161535 0.8124999951937409 0  1.437499994199167 0.8124999952620311 0  1.49999999417126 0.8124999954688288 0  1.562499994089156 0.8124999958290144 0  1.624999993972617 0.8124999963435388 0  1.687499993847508 0.8124999969970413 0  1.749999993744473 0.8124999977554015 0  1.81249999369513 0.8124999985599406 0  1.87499999371955 0.8124999993213086 0  1.937499993798881 0.8124999999307971 0  1.999999993853679 0.8125000003208712 0  0.06249999485458684 0.8750000012584631 0  -5.193793429063315e-09 0.8750000010303181 0  0.1249999949201685 0.8750000013900887 0  0.1874999949489395 0.8750000013702942 0  0.2499999949017878 0.8750000011918889 0  0.3124999947629042 0.8750000008764983 0  0.3749999945378673 0.875000000460178 0  0.4374999942484318 0.8749999999842716 0  0.49999999392663 0.8749999994890965 0  0.5624999936089048 0.8749999990084887 0  0.624999993330129 0.8749999985648302 0  0.687499993117635 0.8749999981667358 0  0.7499999929871894 0.8749999978112418 0  0.8124999929424697 0.8749999974889084 0  0.8749999929770421 0.8749999971890293 0  0.9374999930774249 0.8749999969034018 0  0.9999999932261358 0.8749999966281319 0  1.062499993403797 0.874999996364127 0  1.124999993590612 0.8749999961172362 0  1.187499993767691 0.8749999958979495 0  1.249999993918019 0.8749999957207151 0  1.312499994027412 0.874999995603217 0  1.37499999408593 0.8749999955651652 0  1.437499994089393 0.8749999956260851 0  1.499999994040661 0.8749999958020779 0  1.562499993950166 0.8749999961017699 0  1.624999993835053 0.8749999965223847 0  1.687499993717201 0.8749999970466968 0  1.749999993620196 0.8749999976404488 0  1.812499993563825 0.8749999982504968 0  1.874999993554678 0.8749999988073933 0  1.937499993575913 0.8749999992404754 0  1.999999993591127 0.8749999995085318 0  0.06249999468756457 0.9375000010494824 0  -5.329031020473255e-09 0.9375000009102725 0  0.1249999947156616 0.9375000011273705 0  0.1874999947250977 0.9375000010995043 0  0.2499999946891819 0.9375000009530859 0  0.3124999945937111 0.9375000006981972 0  0.3749999944387822 0.9375000003585532 0  0.43749999423676 0.9374999999639577 0  0.4999999940085743 0.9374999995445152 0  0.5624999937793981 0.9374999991260701 0  0.6249999935741477 0.9374999987268664 0  0.687499993413314 0.93749999
[...]
<PointData  Scalars="p"> 
<DataArray  type="Float64"  Name="p"  format="ascii">0.0000000000000000e+00  -4.9390627633844390e-06  -5.2898743367023902e-06  0.0000000000000000e+00  -8.4105222658203793e-06  -8.6915555997131589e-06  -1.0615880411699881e-05  -1.0776471264140313e-05  -1.1827849963839246e-05  -1.1892577079128567e-05  -1.2286947715054070e-05  -1.2288912053848903e-05  -1.2184919767564377e-05  -1.2150635102982511e-05  -1.1668174517843670e-05  -1.1616300665784826e-05  -1.0847144796114858e-05  -1.0789868583548974e-05  -9.8052492463474824e-06  -9.7497438963329720e-06  -8.6045567883068556e-06  -8.5547285920590094e-06  -7.2899922538673662e-06  -7.2482544531363888e-06  -5.8959754113581160e-06  -5.8630726253697053e-06  -4.4471718029078147e-06  -4.4234251006086218e-06  -2.9618340520790879e-06  -2.9474666560751321e-06  -1.4552248609588710e-06  -1.4499634089114063e-06  6.0950549701503958e-08  5.7115390988778251e-08  1.5764376203313997e-06  1.5632160477604183e-06  3.0796664868593430e-06  3.0571225058101156e-06  4.5587062334834433e-06  4.5266808659294405e-06  5.9992596869699010e-06  5.9575088407263630e-06  7.3816733475058929e-06  7.3307331394668795e-06  8.6813133990810689e-06  8.6222218080760768e-06  9.8655304808717793e-06  9.8003956289222241e-06  1.0889244359692932e-05  1.0822679976529494e-05  1.1693366627356195e-05  1.1632947486771161e-05  1.2198715073549373e-05  1.2156618466378068e-05  1.2297537299711682e-05  1.2293192224491918e-05  1.1847108343223013e-05  1.1908070175584162e-05  1.0658962303761946e-05  1.0818890771556652e-05  8.4893591314054421e-06  8.7714465669540438e-06  5.0453642631839201e-06  5.3879835881383350e-06  0.0000000000000000e+00  0.0000000000000000e+00  -5.9665935068053120e-06  0.0000000000000000e+00  -9.3495057690985685e-06  -1.1231218198911799e-05  -1.2144461066679688e-05  -1.2387779440508742e-05  -1.2148924734227473e-05  -1.1555996833538974e-05  -1.0701038186536657e-05  -9.6522384177315311e-06  -8.4608439141680854e-06  -7.1654687594660766e-06  -5.7954130996918665e-06  -4.3729305931397693e-06  -2.9152328299180893e-06  -1.4362915707867168e-06  5.2164088307302056e-08  1.5395146765710460e-06  3.0149107889807679e-06  4.4664940657760629e-06  5.8803252221085622e-06  7.2389550623854308e-06  8.5202898288129893e-06  9.6958470772907517e-06  1.0728240408165598e-05  1.1568424148358835e-05  1.2151226820831039e-05  1.2387942622860455e-05  1.2153967641116242e-05  1.1263417212495500e-05  9.4123319034694018e-06  6.0423281993946624e-06  0.0000000000000000e+00  -6.6927472948442015e-06  0.0000000000000000e+00  -1.0156916180197821e-05  -1.1873678098755930e-05  -1.2572739380153548e-05  -1.2629878906184574e-05  -1.2253313860740843e-05  -1.1568921435384465e-05  -1.0659444215329862e-05  -9.5829953011327447e-06  -8.3823366528020256e-06  -7.0897731939643893e-06  -5.7300622051884288e-06  -4.3224441461837174e-06  -2.8822522656752495e-06  -1.4221668186120470e-06  4.6886131066054481e-08  1.5148352427902597e-06  2.9715295449016749e-06  4.4059591232728224e-06  5.8054201606930574e-06  7.1545379749446617e-06  8.4342819056631122e-06  9.6205525016043320e-06  1.0682205471273729e-05  1.1578291073683888e-05  1.2253140464420917e-05  1.2626979263969782e-05  1.2577009857562161e-05  1.1896551453312546e-05  1.0205391189334060e-05  6.7531610295947467e-06  0.0000000000000000e+00  -7.3948260682319032e-06  0.0000000000000000e+00  -1.1000339884370201e-05  -1.2607656654593791e-05  -1.3118735236153320e-05  -1.2991271376228816e-05  -1.2464525923998226e-05  -1.1670514970744370e-05  -1.0687699005670010e-05  -9.5666747291189865e-06  -8.3426960987795505e-06  -7.0417784979444073e-06  -5.6838197412026383e-06  -4.2845371665042952e-06  -2.8567949440888997e-06  -1.4114988498858767e-06  4.1732857190928656e-08  1.4939138788638452e-06  2.9360246456843813e-06  4.3584082316874083e-06  5.7501517903869740e-06  7.0984518508302155e-06  8.3878169549079396e-06  9.5989076971074512e-06  1.0706716039528777e-05  1.1677499373123999e-05  1.2462713598102541e-05  1.2986507586136629e-05  1.3119617382944580e-05  1.2624211307232882e-05  1.1039076981690832e-05  7.4449954860783546e-06  0.0000000000000000e+00  -8.0517379862823524e-06  0.0000000000000000e+00  -1.1825230061913453e-05  -1.3366814150919650e-05  -1.3723547775397398e-05  -1.3428619847404258e-05  -1.2755155595167919e-05  -1.1846283386380197e-05  -1.0780465791165577e-05  -9.6037230919584695e-06  -8.3455120898200305e-06  -7.0263713217481027e-06  -5.6616114922600771e-06  -4.2633637965150656e-06  -2.8417762702656437e-06  -1.4056761607923397e-06  3.6977306558830178e-08  1.4786550829677892e-06  2.9118171914935331e-06  4.3284890686819868e-06  5.7198755883707294e-06  7.0759253455392282e-06  8.3847500699426915e-06  9.6315180166813873e-06  1.0796539966879286e-05  1.1851645907007049e-05  1.2752572730615789e-05  1.3423129133626176e-05  1.3722636379834503e-05  1.3379336119510485e-05  1.1857194574186370e-05  8.0943932540201859e-06  0.0000000000000000e+00  -8.6546582931265939e-06  0.0000000000000000e+00  -1.2601666398109961e-05  -1.4106561904896109e-05  -1.4339245438175503e-05  -1.3898867110310305e-05  -1.3090732054877897e-05  -1.2070858080564365e-05  -1.0920349994815113e-05  -9.6829956659261053e-06  -8.3841542849146388e-06  -7.0399600191223034e-06  -5.6617282009365874e-06  -4.2582526989843350e-06  -2.8369923842116888e-06  -1.4046036109425694e-06  3.2775353953097332e-08  1.4692671086307047e-06  2.8989889709533802e-06  4.3158101819828401e-06  5.7131180896018519e-06  7.0835836408096595e-06  8.4186385463374283e-06  9.7073911539292477e-06  1.0934424812567887e-05  1.2075459391197570e-05  1.3088217077782325e-05  1.3893567634569369e-05  1.4337634145417987e-05  1.4116386248930274e-05  1.2628401734835612e-05  8.6911355541159348e-06  0.0000000000000000e+00  -9.1964575759214938e-06  0.0000000000000000e+00  -1.3309200706227248e-05  -1.4795025803728791e-05  -1.4928487009996099e-05  -1.4365004399364955e-05  -1.3438371758855941e-05  -1.2317187236751825e-05  -1.1086350944301070e-05  -9.7889283141061464e-06  -8.4475330017234684e-06  -7.0749261905547254e-06  -5.6791283052895735e-06  -4.2660169057801530e-06  -2.8405833320907080e-06  -1.4074037427645572e-06  2.9190906206830645e-08  1.4649924591814377e-06  2.8957947292830370e-06  4.3172790217698828e-06  5.7249292889282435e-06  7.1138724451436412e-06  8.4784587112835325e-06  9.8110229518571623e-06  1.1099401932581247e-05  1.2321892266058713e-05  1.3436694598453233e-05  1.4360594533261211e-05  1.4926865634763611e-05  1.4802868808663172e-05  1.3331414522805477e-05  9.2273055122067263e-06  0.0000000000000000e+00  -9.6692517196939391e-06  0.0000000000000000e+00  -1.3930928278068998e-05  -1.5407443623841519e-05  -1.5461871102072450e-05  -1.4796653609105572e-05  -1.3769625148393950e-05  -1.2560486682503292e-05  -1.1258044006860028e-05  -9.9054184784774915e-06  -8.5234253442485220e-06  -7.1223144270293754e-06  -5.7074938933946917e-06  -4.2824234564523878e-06  -2.8499675544161330e-06  -1.4128532519382006e-06  2.6233700790508806e-08  1.4646261525805203e-06  2.8996590246317163e-06  4.3286654944311535e-06  5.7489695430682019e-06  7.1578269381601083e-06  8.5519609008231776e-06  9.9262844552041673e-06  1.1271030324787252e-05  1.2566115258080626e-05  1.3769476277739268e-05  1.4793706263973439e-05  1.5460693422799362e-05  1.5413672140782362e-05  1.3948875014711508e-05  9.6945662441785370e-06  0.0000000000000000e+00  -1.0064275545881441e-05  0.0000000000000000e+00  -1.4451470012256072e-05  -1.5923300180982051e-05  -1.5915733158869114e-05  -1.5169253174684933e-05  -1.4060989973274573e-05  -1.2779676999416046e-05  -1.1417476735924471e-05  -1.0017828574477531e-05  -8.6003462228810132e-06  -7.1734385813928597e-06  -5.7405190424542339e-06  -4.3031436041655066e-06  -2.8624631024135752e-06  -1.4196856753590263e-06  2.3872454045762427e-08  1.4668347892643795e-06  2.9078288176527432e-06  4.3455546471204132e-06  5.7788527359036114e-06  7.2066614641344139e-06  8.6275924195762949e-06  1.0038470495806367e-05  1.1431292741912745e-05  1.2787013965658570e-05  1.4063015225639216e-05  1.5168275225920462e-05  1.5915363705210113e-05  1.5928104777262754e-05  1.4465157526650093e-05  1.0083885239553905e-05  0.0000000000000000e+00  -1.0372401357860484e-05  0.0000000000000000e+00  -1.4856577287407796e-05  -1.6325119343766556e-05  -1.6270833920433201e-05  -1.5463176551891597e-05  -1.4293696191393473e-05  -1.2957745982842415e-05  -1.1549942680708181e-05  -1.0113960741732583e-05  -8.6685570592099927e-06  -7.2208110811807003e-06  -5.7726859464965268e-06  -4.3243444940122058e-06  -2.8756778144319068e-06  -1.4267757606961543e-06  2.2054215101080831e-08  1.4703861637414160e-06  2.9177976926293954e-06  4.3639972582767842e-06  5.8089312371220669e-06  7.2527817901520302e-06  8.6954975543704298e-06  1.0135314713812670e-05  1.1565427187463550e-05  1.2967524503969023e-05  1.4298518457182628e-05  1.5464645717031097e-05  1.6271581584935756e-05  1.6328605444182643e-05  1.4865863498291670e-05  1.0385982254422533e-05  0.0000000000000000e+00  -1.0584791263752705e-05  0.0000000000000000e+00  -1.5133385671767414e-05  -1.6598166107053723e-05  -1.6511736288758727e-05  -1.5663187249835069e-05  -1.4453396723384704e-05  -1.3081782219567828e-05  -1.1644275425132504e-05  -1.0184524642806769e-05  -8.7206017362059911e-06  -7.2586666471661839e-06  -5.7997218455137256e-06  -4.3430429823671930e-06  -2.8877428713395316e-06  -1.4332426217862181e-06  2.0736630212573751e-08  1.4743122226593710e-06  2.9276056367953917e-06  4.3809093788240815e-06  5.8348314284537773e-06  7.2903051644608952e-06  8.7481334181673763e-06  1.0207422622052199e-05  1.1662212350042448e-05  1.3094679570391373e-05  1.4461589693998794e-05  1.5667536585439060e-05  1.6513857169748395e-05  1.6600357276058897e-05  1.5138035978749681e-05  1.0591930989201483e-05  0.0000000000000000e+00  -1.0693485865641605e-05  0.0000000000000000e+00  -1.5270878188337718e-05  -1.6730515974876914e-05  -1.6626648371051198e-05  -1.5758158961719314e-05  -1.4530006837448025e-05  -1.3142929270319367e-05  -1.1692975834123824e-05  -1.0223359394516311e-05  -8.7515935104808434e-06  -7.2832576430366104e-06  -5.8188717513113922e-06  -4.3573288839624671e-06  -2.8974696958808178e-06  -1.4385311955114728e-06  1.9886245227716499e-08  1.4779895849689419e-06  2.9359899755605551e-06  4.3943000583112673e-06  5.8537021423936856e-06  7.3153840845947736e-06  8.7804827657098806e-06  1.0248532072692081e-05  1.1714010336860440e-05  1.3159544462651498e-05  1.4542049683748178e-05  1.5765766877741128e-05  1.6630339791043506e-05  1.6731392189268277e-05  1.5270607306902512e-05  1.0693746418277847e-05  0.0000000000000000e+00  -1.0691857665733325e-05  0.0000000000000000e+00  -1.5260276405535121e-05  -1.6713269606864189e-05  -1.6607401784444350e-05  -1.5740993639752040e-05  -1.4517545279180077e-05  -1.3136320903659491e-05  -1.1692157783135259e-05  -1.0227477007408169e-05  -8.7592820108228805e-06  -7.2929570368095906e-06  -5.8290027244433452e-06  -4.3664626840853896e-06  -2.9044280445632762e-06  -1.4424641483824624e-06  1.9456090762759705e-08  1.4811454030838659e-06  2.9424214268382412e-06  4.4033221073237187e-06  5.8642956506274041e-06  7.3262551828353125e-06  8.7901601050977473e-06  1.0255478211893627e-05  1.1716810880476666e-05  1.3157085852687885e-05  1.4533841600194086e-05  1.5752150086089804e-05  1.6612840028504265e-05  1.6712790683655623e-05  1.5254802509642683e-05  1.0684809584881518e-05  0.0000000000000000e+00  -1.0574851135327434e-05  0.0000000000000000e+00  -1.5095285861957810e-05  -1.6540671485499841e-05  -1.6449454985621656e-05  -1.5608463238183984e-05  -1.4413947949357937e-05  -1.3060778026410354e-05  -1.1641318181920079e-05  -1.0196778808073286e-05  -8.7438441656426406e-06  -7.2880559812675989e-06  -5.8304449955944782e-06  -4.3707425333692576e-06  -2.9088459251584570e-06  -1.4451731865905553e-06  1.9420942440161968e-08  1.4838593310356335e-06  2.9470692707203302e-06  4.4082075296302807e-06  5.8668592057069488e-06  7.3231222017834858e-06  8.7772203982258072e-06  1.0228063834673617e-05  1.1669954771625071e-05  1.3086033328137523e-05  1.4434758469379269e-05  1.5623377564240455e-05  1.6456722236608921e-05  1.6538742240114599e-05  1.5084282971650845e-05  1.0560052571330727e-05  0.0000000000000000e+00  -1.0338967658550085e-05  0.0000000000000000e+00  -1.4772056417621045e-05  -1.6210006553575505e-05  -1.6151694488119382e-05  -1.5360901623569986e-05  -1.4220613287120623e-05  -1.2918323825436430e-05  -1.1542700254714141e-05  -1.0133495732199105e-05  -8.7072621092281527e-06  -7.2702345959066849e-06  -5.8245073689370382e-06  -4.3711172199128782e-06  -2.9113187548896531e-06  -1.4469204120932566e-06  1.9840444783171620e-08  1.4865076333704055e-06  2.9506316785426907e-06  4.4099843374815911e-06  5.8627622016178042e-06  7.3076802709646580e-06  8.7436574542943709e-06  1.0168455713595779e-05  1.1575637225184798e-05  1.2948274496674191e-05  1.4246062635682232e-05  1.5379596070892572e-05  1.6160685569545396e-05  1.6206360870951692e-05  1.4755065560583323e-05  1.0315911124901594e-05  0.0000000000000000e+00  -9.9819147736487944e-06  0.0000000000000000e+00  -1.4288684122774121e-05  -1.5721025454687383e-05  -1.5715712999948275e-05  -1.5001344883779957e-05  -1.3941362706034106e-05  -1.2712986039242317e-05  -1.1400075879408387e-05  -1.0040846221332196e-05  -8.6521340492463594e-06  -7.2414135523105543e-06  -5.8125379035169550e-06  -4.3684336224762322e-06  -2.9123002577723458e-06  -1.4478379895926287e-06  2.0857139613769478e-08  1.4895020883713672e-06  2.9538195158512098e-06  4.4097295398619018e-06  5.8535267368198910e-06  7.2819936679755650e-06  8.6921145958263491e-06  1.0079896162770175e-05  1.1437536221491506e-05  1.2747693625982535e-05  1.3971362124030337e-05  1.5023575385385903e-05  1.5726054138930194e-05  1.5715136386032281e-05  1.4265038496059262e-05  9.9499635741581985e-06  0.0000000000000000e+00  -9.5017541128770863e-06  0.0000000000000000e+00  -1.3643990387695394e-05  -1.5074438850308642e-05  -1.5143991394814427e-05  -1.4533317356857151e-05  -1.3579930565460507e-05  -1.2448007126371408e-05  -1.1215835461409783e-05  -9.9202397274248193e-06  -8.5789424101256942e-06  -7.2014057563330291e-06  -5.7938947885207532e-06  -4.3618877107091658e-06  -2.9110313785032103e-06  -1.4473833418551674e-06  2.2711983352974514e-08  1.4927717788951675e-06  2.9563245007962367e-06  4.4070390408686548e-06  5.8388677855511860e-06  7.2461230897486875e-06  8.6232662522393182e-06  9.9638283124985005e-06  1.1257975481033085e-05  1.2487343406499737e-05  1.3614073321607228e-05  1.4558465463243392e-05  1.5154871610514003e-05  1.5065326255872450e-05  1.3612605114469482e-05  9.4599602397342288e-06  0.0000000000000000e+00  -8.8952266130804705e-06  0.0000000000000000e+00  -1.2834940660771189e-05  -1.4268563174823275e-05  -1.4435749706969119e-05  -1.3955905955879974e-05  -1.3134384019676281e-05  -1.2119963052917697e-05  -1.0984994784439724e-05  -9.7654735829159171e-06  -8.4807950078423747e-06  -7.1432014794801241e-06  -5.7620942282673144e-06  -4.3460132630817488e-06  -2.9035039432759001e-06  -1.4432854910089345e-06  2.5782162745494645e-08  1.4947942126262352e-06  2.9548534138683254e-06  4.3971239754846054e-06  5.8128830336619118e-06  7.1935709338500860e-06  8.5305547837620358e-06  9.8142438576910215e-06  1.1031959026734459e-05  1.2163551284469452e-05  1.3171837502396316e-05  1.3982735053005572e-05  1.4445605026406979e-05  1.4254438907725891e-05  1.2793934333765309e-05  8.8420323796133468e-06  0.0000000000000000e+00  -8.1545415894774111e-06  0.0000000000000000e+00  -1.1851262798637885e-05  -1.3291936191592441e-05  -1.3577633494005031e-05  -1.3252892178654425e-05  -1.2585206995655936e-05  -1.1706391860874852e-05  -1.0683090041253722e-05  -9.5513033394542484e-06  -8.3330383941981073e-06  -7.0440614814275555e-06  -5.6974202104297245e-06  -4.3050918903420621e-06  -2.8786834307524184e-06  -1.4296822319037897e-06  3.0523701968289899e-08  1.4906070248440508e-06  2.9392534365071661e-06  4.3650872333381640e-06  5.7566290579562561e-06  7.1022289142073164e-06  8.3898404909274382e-06  9.6061910254693371e-06  1.0735047464880186e-05  1.1753612924948276e-05  1.2624559642608781e-05  1.3279286729026003e-05  1.3583814597564064e-05  1.3269799413071094e-05  1.1797553796680630e-05  8.0874305157284616e-06  0.0000000000000000e+00  -7.2611014182591867e-06  0.0000000000000000e+00  -1.0664059538394078e-05  -1.2107128520328116e-05  -1.2523359662645176e-05  -1.2369383079249088e-05  -1.1870408808931773e-05  -1.1140693868001510e-05  -1.0241921020646000e-05  -9.2110164078986320e-06  -8.0732542218265417e-06  -6.8483010773596601e-06  -5.5529616973802199e-06  -4.2025249250188775e-06  -2.8114543995894671e-06  -1.3936754483785151e-06  3.7239886334125538e-08  1.4679206731742005e-06  2.8849989887394768e-06  4.2749138869051539e-06  5.6237152201981699e-06  6.9168978242177251e-06  8.1390590639911192e-06  9.2731571511285285e-06  1.0299040889329678e-05  1.1190609993410206e-05  1.1909585992054682e-05  1.2392222774611227e-05  1.2521907587035309e-05  1.2072515185003557e-05  1.0593128283962685e-05  7.1763396386938600e-06  0.0000000000000000e+00  -6.1727149597184474e-06  0.0000000000000000e+00  -9.2012435399342830e-06  -1.0615471018664616e-05  -1.1150278464359208e-05  -1.1163423038776701e-05  -1.0835255987860382e-05  -1.0262612654656989e-05  -9.5027029645556602e-06  -8.5935177491385423e-06  -7.5633191504710133e-06  -6.4350414279141432e-06  -5.2284200443302269e-06  -3.9611549097798278e-06  -2.6495875080508538e-06  -1.3091354015604693e-06  4.5409099288878543e-08  1.3995685192291800e-06  2.7388671701758761e-06  4.0484935067446150e-06  5.3129855746281700e-06  6.5159002987259976e-06  7.6393924886015483e-06  8.6634348280337124e-06  9.5645696397860673e-06  1.0313724792881794e-05  1.0871569816575644e-05  1.1178852050915460e-05  1.1136431632178008e-05  1.0563190021594627e-05  9.1079596232700524e-06  6.0659296073808474e-06  0.0000000000000000e+00  -4.7950062495702852e-06  0.0000000000000000e+00  -7.2917697300829824e-06  -8.5790818776331579e-06  -9.1668601084377076e-06  -9.3065862466624452e-06  -9.1319947700738107e-06  -8.7213428254100246e-06  -8.1255892286248707e-06  -7.3814262449994668e-06  -6.5174668593062338e-06  -5.5572834155610702e-06  -4.5210303099850351e-06  -3.4264681648299037e-06  -2.2896751315223732e-06  -1.1255421365568037e-06  5.1807650074606679e-08  1.2286375185163550e-06  2.3911983064902547e-06  3.5253286557316948e-06  4.6160421842778912e-06  5.6471186806350457e-06  6.6005763194316591e-06  7.4559111005576053e-06  8.1890029193247778e-06  8.7704240754818340e-06  9.1622107471248478e-06  9.3115395663459768e-06  9.1381097319740799e-06  8.5076755311926400e-06  7.1757914221240408e-06  4.6657456093316225e-06  0.0000000000000000e+00  -2.9119991608933163e-06  0.0000000000000000e+00  -4.5359441291778570e-06  -5.4497823035336932e-06  -5.9196982094883543e-06  -6.0839559263705592e-06  -6.0229401017618825e-06  -5.7884062004824191e-06  -5.4167496591690203e-06  -4.9354297848654236e-06  -4.3662533242968771e-06  -3.7271579296493958e-06  -3.0333034714980759e-06  -2.2978349051512696e-06  -1.5324465275129863e-06  -7.4782139480182623e-07  4.6011467343557372e-08  8.3933881697059477e-07  1.6224338495157378e-06  2.3852144069311497e-06  3.1168972832766500e-06  3.8056245236678424e-06  4.4380227775644488e-06  4.9985912602083429e-06  5.4688973957315072e-06  5.8264479752184649e-06  6.0427583295433707e-06  6.0799907827127351e-06  5.8848293700951485e-06  5.3764391198910677e-06  4.4219458342240555e-06  2.7838159258305437e-06  0.0000000000000000e+00  0.0000000000000000e+00  0.0000000000000000e+00  0.0000000000000000e+00  0.0000000000000000e+00  0.0000000000000000e+00  0.0000000000000000e+00  0.0000000000000000e+00  0.0000000000000000e+00  0.0000000000000000e+00  0.0000000000000000e+00  0.0000000000000000e+00  0.0000000000000000e+00  0.0000000000000000e+00  0.0000000000000000e+00  0.0000000000000000e+00  0.0000000000000000e+00  0.0000000000000000e+00  0.0000000000000000e+00  0.0000000000000000e+00  0.0000000000000000e+00  0.0000000000000000e+00  0.0000000000000000e+00  0.0000000000000000e+00  0