<?xml version="1.0"?>
<VTKFile type="UnstructuredGrid"  version="0.1"  >
<UnstructuredGrid>
<Piece  NumberOfPoints="759" NumberOfCells="1408">
<Points>
<DataArray  type="Float64"  NumberOfComponents="3"  format="ascii">0 0.46875 0  0.03125 0.46875 0  0.03125 0.515625 0  0 0.515625 0  0.0625 0.46875 0  0.0625 0.515625 0  0.09375 0.46875 0  0.09375 0.515625 0  0.125 0.46875 0  0.125 0.515625 0  0.15625 0.46875 0  0.15625 0.515625 0  0.1875 0.46875 0  0.1875 0.515625 0  0.21875 0.46875 0  0.21875 0.515625 0  0.25 0.46875 0  0.25 0.515625 0  0.28125 0.46875 0  0.28125 0.515625 0  0.3125 0.46875 0  0.3125 0.515625 0  0.34375 0.46875 0  0.34375 0.515625 0  0.375 0.46875 0  0.375 0.515625 0  0.40625 0.46875 0  0.40625 0.515625 0  0.4375 0.46875 0  0.4375 0.515625 0  0.46875 0.46875 0  0.46875 0.515625 0  0.5 0.46875 0  0.5 0.515625 0  0.53125 0.46875 0  0.53125 0.515625 0  0.5625 0.46875 0  0.5625 0.515625 0  0.59375 0.46875 0  0.59375 0.515625 0  0.625 0.46875 0  0.625 0.515625 0  0.65625 0.46875 0  0.65625 0.515625 0  0.6875 0.46875 0  0.6875 0.515625 0  0.71875 0.46875 0  0.71875 0.515625 0  0.75 0.46875 0  0.75 0.515625 0  0.78125 0.46875 0  0.78125 0.515625 0  0.8125 0.46875 0  0.8125 0.515625 0  0.84375 0.46875 0  0.84375 0.515625 0  0.875 0.46875 0  0.875 0.515625 0  0.90625 0.46875 0  0.90625 0.515625 0  0.9375 0.46875 0  0.9375 0.515625 0  0.96875 0.46875 0  0.96875 0.515625 0  1 0.46875 0  1 0.515625 0  0.03125 0.5625 0  0 0.5625 0  0.0625 0.5625 0  0.09375 0.5625 0  0.125 0.5625 0  0.15625 0.5625 0  0.1875 0.5625 0  0.21875 0.5625 0  0.25 0.5625 0  0.28125 0.5625 0  0.3125 0.5625 0  0.34375 0.5625 0  0.375 0.5625 0  0.40625 0.5625 0  0.4375 0.5625 0  0.46875 0.5625 0  0.5 0.5625 0  0.53125 0.5625 0  0.5625 0.5625 0  0.59375 0.5625 0  0.625 0.5625 0  0.65625 0.5625 0  0.6875 0.5625 0  0.71875 0.5625 0  0.75 0.5625 0  0.78125 0.5625 0  0.8125 0.5625 0  0.84375 0.5625 0  0.875 0.5625 0  0.90625 0.5625 0  0.9375 0.5625 0  0.96875 0.5625 0  1 0.5625 0  0.03125 0.609375 0  0 0.609375 0  0.0625 0.609375 0  0.09375 0.609375 0  0.125 0.609375 0  0.15625 0.609375 0  0.1875 0.609375 0  0.21875 0.609375 0  0.25 0.609375 0  0.28125 0.609375 0  0.3125 0.609375 0  0.34375 0.609375 0  0.375 0.609375 0  0.40625 0.609375 0  0.4375 0.609375 0  0.46875 0.609375 0  0.5 0.609375 0  0.53125 0.609375 0  0.5625 0.609375 0  0.59375 0.609375 0  0.625 0.609375 0  0.65625 0.609375 0  0.6875 0.609375 0  0.71875 0.609375 0  0.75 0.609375 0  0.78125 0.609375 0  0.8125 0.609375 0  0.84375 0.609375 0  0.875 0.609375 0  0.90625 0.609375 0  0.9375 0.609375 0  0.96875 0.609375 0  1 0.609375 0  0.03125 0.65625 0  0 0.65625 0  0.0625 0.65625 0  0.09375 0.65625 0  0.125 0.65625 0  0.15625 0.65625 0  0.1875 0.65625 0  0.21875 0.65625 0  0.25 0.65625 0  0.28125 0.65625 0  0.3125 0.65625 0  0.34375 0.65625 0  0.375 0.65625 0  0.40625 0.65625 0  0.4375 0.65625 0  0.46875 0.65625 0  0.5 0.65625 0  0.53125 0.65625 0  0.5625 0.65625 0  0.59375 0.65625 0  0.625 0.65625 0  0.65625 0.65625 0  0.6875 0.65625 0  0.71875 0.65625 0  0.75 0.65625 0  0.78125 0.65625 0  0.8125 0.65625 0  0.84375 0.65625 0  0.875 0.65625 0  0.90625 0.65625 0  0.9375 0.65625 0  0.96875 0.65625 0  1 0.65625 0  0.03125 0.703125 0  0 0.703125 0  0.0625 0.703125 0  0.09375 0.703125 0  0.125 0.703125 0  0.15625 0.703125 0  0.1875 0.703125 0  0.21875 0.703125 0  0.25 0.703125 0  0.28125 0.703125 0  0.3125 0.703125 0  0.34375 0.703125 0  0.375 0.703125 0  0.40625 0.703125 0  0.4375 0.703125 0  0.46875 0.703125 0  0.5 0.703125 0  0.53125 0.703125 0  0.5625 0.703125 0  0.59375 0.703125 0  0.625 0.703125 0  0.65625 0.703125 0  0.6875 0.703125 0  0.71875 0.703125 0  0.75 0.703125 0  0.78125 0.703125 0  0.8125 0.703125 0  0.84375 0.703125 0  0.875 0.703125 0  0.90625 0.703125 0  0.9375 0.703125 0  0.96875 0.703125 0  1 0.703125 0  0.03125 0.75 0  0 0.75 0  0.0625 0.75 0  0.09375 0.75 0  0.125 0.75 0  0.15625 0.75 0  0.1875 0.75 0  0.21875 0.75 0  0.25 0.75 0  0.28125 0.75 0  0.3125 0.75 0  0.34375 0.75 0  0.375 0.75 0  0.40625 0.75 0  0.4375 0.75 0  0.46875 0.75 0  0.5 0.75 0  0.53125 0.75 0  0.5625 0.75 0  0.59375 0.75 0  0.625 0.75 0  0.65625 0.75 0  0.6875 0.75 0  0.71875 0.75 0  0.75 0.75 0  0.78125 0.75 0  0.8125 0.75 0  0.84375 0.75 0  0.875 0.75 0  0.90625 0.75 0  0.9375 0.75 0  0.96875 0.75 0  1 0.75 0  0.03125 0.796875 0  0 0.796875 0  0.0625 0.796875 0  0.09375 0.796875 0  0.125 0.796875 0  0.15625 0.796875 0  0.1875 0.796875 0  0.21875 0.796875 0  0.25 0.796875 0  0.28125 0.796875 0  0.3125 0.796875 0  0.34375 0.796875 0  0.375 0.796875 0  0.40625 0.796875 0  0.4375 0.796875 0  0.46875 0.796875 0  0.5 0.796875 0  0.53125 0.796875 0  0.5625 0.796875 0  0.59375 0.796875 0  0.625 0.796875 0  0.65625 0.796875 0  0.6875 0.796875 0  0.71875 0.796875 0  0.75 0.796875 0  0.78125 0.796875 0  0.8125 0.796875 0  0.84375 0.796875 0  0.875 0.796875 0  0.90625 0.796875 0  0.9375 0.796875 0  0.96875 0.796875 0  1 0.796875 0  0.03125 0.84375 0  0 0.84375 0  0.0625 0.84375 0  0.09375 0.84375 0  0.125 0.84375 0  0.15625 0.84375 0  0.1875 0.84375 0  0.21875 0.84375 0  0.25 0.84375 0  0.28125 0.84375 0  0.3125 0.84375 0  0.34375 0.84375 0  0.375 0.84375 0  0.40625 0.84375 0  0.4375 0.84375 0  0.46875 0.84375 0  0.5 0.84375 0  0.53125 0.84375 0  0.5625 0.84375 0  0.59375 0.84375 0  0.625 0.84375 0  0.65625 0.84375 0  0.6875 0.84375 0  0.71875 0.84375 0  0.75 0.84375 0  0.78125 0.84375 0  0.8125 0.84375 0  0.84375 0.84375 0  0.875 0.84375 0  0.90625 0.84375 0  0.9375 0.84375 0  0.96875 0.84375 0  1 0.84375 0  0.03125 0.890625 0  0 0.890625 0  0.0625 0.890625 0  0.09375 0.890625 0  0.125 0.890625 0  0.15625 0.890625 0  0.1875 0.890625 0  0.21875 0.890625 0  0.25 0.890625 0  0.28125 0.890625 0  0.3125 0.890625 0  0.34375 0.890625 0  0.375 0.890625 0  0.40625 0.890625 0  0.4375 0.890625 0  0.46875 0.890625 0  0.5 0.890625 0  0.53125 0.890625 0  0.5625 0.890625 0  0.59375 0.890625 0  0.625 0.890625 0  0.65625 0.890625 0  0.6875 0.890625 0  0.71875 0.890625 0  0.75 0.890625 0  0.78125 0.890625 0  0.8125 0.890625 0  0.84375 0.890625 0  0.875 0.890625 0  0.90625 0.890625 0  0.9375 0.890625 0  0.96875 0.890625 0  1 0.890625 0  0.03125 0.9375 0  0 0.9375 0  0.0625 0.9375 0  0.09375 0.9375 0  0.125 0.9375 0  0.15625 0.9375 0  0.1875 0.9375 0  0.21875 0.9375 0  0.25 0.9375 0  0.28125 0.9375 0  0.3125 0.9375 0  0.34375 0.9375 0  0.375 0.9375 0  0.40625 0.9375 0  0.4375 0.9375 0  0.46875 0.9375 0  0.5 0.9375 0  0.53125 0.9375 0  0.5625 0.9375 0  0.59375 0.9375 0  0.625 0.9375 0  0.65625 0.9375 0  0.6875 0.9375 0  0.71875 0.9375 0  0.75 0.9375 0  0.78125 0.9375 0  0.8125 0.9375 0  0.84375 0.9375 0  0.875 0.9375 0  0.90625 0.9375 0  0.9375 0.9375 0  0.96875 0.9375 0  1 0.9375 0  0.03125 0.984375 0  0 0.984375 0  0.0625 0.984375 0  0.09375 0.984375 0  0.125 0.984375 0  0.15625 0.984375 0  0.1875 0.984375 0  0.21875 0.984375 0  0.25 0.984375 0  0.28125 0.984375 0  0.3125 0.984375 0  0.34375 0.984375 0  0.375 0.984375 0  0.40625 0.984375 0  0.4375 0.984375 0  0.46875 0.984375 0  0.5 0.984375 0  0.53125 0.984375 0  0.5625 0.984375 0  0.59375 0.984375 0  0.625 0.984375 0  0.65625 0.984375 0  0.6875 0.984375 0  0.71875 0.984375 0  0.75 0.984375 0  0.78125 0.984375 0  0.8125 0.984375 0  0.84375 0.984375 0  0.875 0.984375 0  0.90625 0.984375 0  0.9375 0.984375 0  0.96875 0.984375 0  1 0.984375 0  0.03125 1.03125 0  0 1.03125 0  0.0625 1.03125 0  0.09375 1.03125 0  0.125 1.03125 0  0.15625 1.03125 0  0.1875 1.03125 0  0.21875 1.03125 0  0.25 1.03125 0  0.28125 1.03125 0  0.3125 1.03125 0  0.34375 1.03125 0  0.375 1.03125 0  0.40625 1.03125 0  0.4375 1.03125 0  0.46875 1.03125 0  0.5 1.03125 0  0.53125 1.03125 0  0.5625 1.03125 0  0.59375 1.03125 0  0.625 1.03125 0  0.65625 1.03125 0  0.6875 1.03125 0  0.71875 1.03125 0  0.75 1.03125 0  0.78125 1.03125 0  0.8125 1.03125 0  0.84375 1.03125 0  0.875 1.03125 0  0.90625 1.03125 0  0.9375 1.03125 0  0.96875 1.03125 0  1 1.03125 0  0.03125 1.078125 0  0 1.078125 0  0.0625 1.078125 0  0.09375 1.078125 0  0.125 1.078125 0  0.15625 1.078125 0  0.1875 1.078125 0  0.21875 1.078125 0  0.25 1.078125 0  0.28125 1.078125 0  0.3125 1.078125 0  0.34375 1.078125 0  0.375 1.078125 0  0.40625 1.078125 0  0.4375 1.078125 0  0.46875 1.078125 0  0.5 1.078125 0  0.53125 1.078125 0  0.5625 1.078125 0  0.59375 1.078125 0  0.625 1.078125 0  0.65625 1.078125 0  0.6875 1.078125 0  0.71875 1.078125 0  0.75 1.078125 0  0.78125 1.078125 0  0.8125 1.078125 0  0.84375 1.078125 0  0.875 1.078125 0  0.90625 1.078125 0  0.9375 1.078125 0  0.96875 1.078125 0  1 1.078125 0  0.03125 1.125 0  0 1.125 0  0.0625 1.125 0  0.09375 1.125 0  0.125 1.125 0  0.15625 1.125 0  0.1875 1.125 0  0.21875 1.125 0  0.25 1.125 0  0.28125 1.125 0  0.3125 1.125 0  0.34375 1.125 0  0.375 1.125 0  0.40625 1.125 0  0.4375 1.125 0  0.46875 1.125 0  0.5 1.125 0  0.53125 1.125 0  0.5625 1.125 0  0.59375 1.125 0  0.625 1.125 0  0.65625 1.125 0  0.6875 1.125 0  0.71875 1.125 0  0.75 1.125 0  0.78125 1.125 0  0.8125 1.125 0  0.84375 1.125 0  0.875 1.125 0  0.90625 1.125 0  0.9375 1.125 0  0.96875 1.125 0  1 1.125 0  0.03125 1.171875 0  0 1.171875 0  0.0625 1.171875 0  0.09375 1.171875 0  0.125 1.171875 0  0.15625 1.171875 0  0.1875 1.171875 0  0.21875 1.171875 0  0.25 1.171875 0  0.28125 1.171875 0  0.3125 1.171875 0  0.34375 1.171875 0  0.375 1.171875 0  0.40625 1.171875 0  0.4375 1.171875 0  0.46875 1.171875 0  0.5 1.171875 0  0.53125 1.171875 0  0.5625 1.171875 0  0.59375 1.171875 0  0.625 1.171875 0  0.65625 1.171875 0  0.6875 1.171875 0  0.71875 1.171875 0  0.75 1.171875 0  0.78125 1.171875 0  0.8125 1.171875 0  0.84375 1.171875 0  0.875 1.171875 0  0.90625 1.171875 0  0.9375 1.171875 0  0.96875 1.171875 0  1 1.171875 0  0.03125 1.21875 0  0 1.21875 0  0.0625 1.21875 0  0.09375 1.21875 0  0.125 1.21875 0  0.15625 1.21875 0  0.1875 1.21875 0  0.21875 1.21875 0  0.25 1.21875 0  0.28125 1.21875 0  0.3125 1.21875 0  0.34375 1.21875 0  0.375 1.21875 0  0.40625 1.21875 0  0.4375 1.21875 0  0.46875 1.21875 0  0.5 1.21875 0  0.53125 1.21875 0  0.5
[...]
<PointData  Scalars="p"> 
<DataArray  type="Float64"  Name="p"  format="ascii">0.0000000000000000e+00  -9.4263248564467085e-03  -9.8745549808242142e-03  0.0000000000000000e+00  -1.6254241411558346e-02  -1.7002934772006626e-02  -2.0956130208057290e-02  -2.1912352416992905e-02  -2.3932151359940961e-02  -2.5027207560648176e-02  -2.5512492434817739e-02  -2.6690592274550059e-02  -2.5966401591721450e-02  -2.7180131933777871e-02  -2.5512320017229868e-02  -2.6720520950734978e-02  -2.4327169934613934e-02  -2.5493946224577839e-02  -2.2554482865379852e-02  -2.3648539198128125e-02  -2.0311162094911090e-02  -2.1305493727920524e-02  -1.7693202825968809e-02  -1.8564774290317151e-02  -1.4780393632283667e-02  -1.5510019519078747e-02  -1.1640278415984620e-02  -1.2212439814196147e-02  -8.3314296961290411e-03  -8.7342418869399367e-03  -4.9063006307085294e-03  -5.1314352772239072e-03  -1.4136596542332260e-03  -1.4563914318759658e-03  2.0991839763036253e-03  2.2399490032026276e-03  5.5843022019345118e-03  5.9058932288118260e-03  8.9910639299020153e-03  9.4869148418157533e-03  1.2264011655019431e-02  1.2923442870722902e-02  1.5340535755819520e-02  1.6148543668500489e-02  1.8148261354114660e-02  1.9085235919192589e-02  2.0602001913837015e-02  2.1643461519798238e-02  2.2600173891516445e-02  2.3716437785782439e-02  2.4020419729176991e-02  2.5176315602390507e-02  2.4714322977209210e-02  2.5868829183551767e-02  2.4500869050144498e-02  2.5606843761915469e-02  2.3158452458365411e-02  2.4162396571951635e-02  2.0414968251720018e-02  2.1257246793436057e-02  1.5935248826635912e-02  1.6551649806509368e-02  9.3040736726385225e-03  9.6320446703194763e-03  0.0000000000000000e+00  0.0000000000000000e+00  -1.0919572450292139e-02  0.0000000000000000e+00  -1.8823259814272866e-02  -2.4290667153367730e-02  -2.7785356620951190e-02  -2.9679575879362347e-02  -3.0273168307667127e-02  -2.9808713678717499e-02  -2.8483177241439967e-02  -2.6457649746300271e-02  -2.3864743698280538e-02  -2.0815042490098277e-02  -1.7401949500608544e-02  -1.3706098973666614e-02  -9.7986559809252229e-03  -5.7445329957127918e-03  -1.6048495120905139e-03  2.5605272068814182e-03  6.6908393027805078e-03  1.0722080859044379e-02  1.4584803130664098e-02  1.8201551004964851e-02  2.1484195872025592e-02  2.4330662673755714e-02  2.6621302141288824e-02  2.8214258163555304e-02  2.8940040709740763e-02  2.8594607687037931e-02  2.6931014868545218e-02  2.3648951315435249e-02  1.8382045733263738e-02  1.0682141141418413e-02  0.0000000000000000e+00  -1.2507123691224659e-02  0.0000000000000000e+00  -2.1572597263554264e-02  -2.7862851214447152e-02  -3.1905826808334536e-02  -3.4122042279142464e-02  -3.4848701121865992e-02  -3.4357714895834925e-02  -3.2870263711852345e-02  -3.0567499346151671e-02  -2.7599728213882853e-02  -2.4092893154708056e-02  -2.0154702187363868e-02  -1.5878713824424823e-02  -1.1348660457030058e-02  -6.6412852836054224e-03  -1.8296533451130355e-03  3.0146131352050496e-03  7.8184774905632470e-03  1.2505332792542867e-02  1.6992203123064171e-02  2.1187302320053232e-02  2.4986801387856368e-02  2.8271618920463402e-02  3.0903152678988223e-02  3.2718546071787792e-02  3.3524334254308889e-02  3.3088927024553669e-02  3.1132546542826094e-02  2.7314839016354831e-02  2.1218409310291921e-02  1.2327604234510762e-02  0.0000000000000000e+00  -1.4624903612901443e-02  0.0000000000000000e+00  -2.5215753892162004e-02  -3.2565403476091125e-02  -3.7295747441700569e-02  -3.9898396739972898e-02  -4.0764799527079947e-02  -4.0209690944248033e-02  -3.8488108922451011e-02  -3.5809453832818680e-02  -3.2347202606121873e-02  -2.8247789784064576e-02  -2.3636317498346247e-02  -1.8622628823839575e-02  -1.3304812495529398e-02  -7.7738288304667665e-03  -2.1159396610529596e-03  3.5834560090279564e-03  9.2377222372515902e-03  1.4755429717865247e-02  2.0038125311469687e-02  2.4976667460416747e-02  2.9448339096286170e-02  3.3312453308715573e-02  3.6406155926034287e-02  3.8538285120539272e-02  3.9482510746661086e-02  3.8967739985116816e-02  3.6666277961004877e-02  3.2177709385369485e-02  2.5007978451098405e-02  1.4540887069194085e-02  0.0000000000000000e+00  -1.7295296065055719e-02  0.0000000000000000e+00  -2.9784636350397697e-02  -3.8429626516139057e-02  -4.3979206106327766e-02  -4.7021171199684977e-02  -4.8021103970636893e-02  -4.7351124507702048e-02  -4.5312128134128091e-02  -4.2149902362459107e-02  -3.8068346854584524e-02  -3.3238542262839073e-02  -2.7807350752358337e-02  -2.1902597440766686e-02  -1.5639367743682929e-02  -9.1231696264232730e-03  -2.4551961957555201e-03  4.2655000069316976e-03  1.0937141874137319e-02  1.7453191933787009e-02  2.3697612414572918e-02  2.9542344756440263e-02  3.4842223723667694e-02  3.9431156620731302e-02  4.3115842364122345e-02  4.5669435785002530e-02  4.6822230447880246e-02  4.6250595653571300e-02  4.3561470008931208e-02  3.8272454669288088e-02  2.9784493989923180e-02  1.7345356374624216e-02  0.0000000000000000e+00  -2.0566428334471615e-02  0.0000000000000000e+00  -3.5355879494671484e-02  -4.5545981757304635e-02  -5.2049299095386227e-02  -5.5578566165703121e-02  -5.6695494921713947e-02  -5.5847155625247835e-02  -5.3393199170738197e-02  -4.9626422655962996e-02  -4.4788106290972317e-02  -3.9080218004958298e-02  -3.2674340417708364e-02  -2.5719817910008391e-02  -1.8349071763293617e-02  -1.0684177786455468e-02  -2.8401523525071713e-03  5.0689004606069826e-03  1.2927430035238654e-02  2.0612186930266944e-02  2.7989883517381117e-02  3.4910770865329420e-02  4.1205187472704345e-02  4.6676454321213923e-02  5.1095004407231498e-02  5.4189062929585925e-02  5.5634178954393251e-02  5.5038597919325666e-02  5.1924376162665035e-02  4.5701848079840436e-02  3.5635246605067519e-02  2.0796069537809308e-02  0.0000000000000000e+00  -2.4505688985493421e-02  0.0000000000000000e+00  -4.2037687161510941e-02  -5.4043519137112438e-02  -6.1641227975170070e-02  -6.5701253228335282e-02  -6.6907138938496022e-02  -6.5800990296415660e-02  -6.2816882995036669e-02  -5.8306383496911911e-02  -5.2557230865877297e-02  -4.5808201778497724e-02  -3.8260375863382400e-02  -3.0086373327510973e-02  -2.1438200717655048e-02  -1.2453460782053170e-02  -3.2621391169855027e-03  6.0090653213483898e-03  1.5229716565432264e-02  2.4262142082699296e-02  3.2953787991260398e-02  4.1133457869584771e-02  4.8602891120131664e-02  5.5131062270595256e-02  6.0444270638113161e-02  6.4216215922469566e-02  6.6053792263405797e-02  6.5479469507801535e-02  6.1907403211431240e-02  5.4611585671383862e-02  4.2682750977498567e-02  2.4969700657731124e-02  0.0000000000000000e+00  -2.9196100826103938e-02  0.0000000000000000e+00  -4.9962178394706791e-02  -6.4077982212617637e-02  -7.2915674265298880e-02  -7.7541695672017769e-02  -7.8791760666115498e-02  -7.7326858772716472e-02  -7.3674145556929457e-02  -6.8258070514077160e-02  -6.1423271263698787e-02  -5.3452588114338756e-02  -4.4581075788936594e-02  -3.5007330804871881e-02  -2.4903224506430361e-02  -1.4422117411275831e-02  -3.7066190137052821e-03  7.1043541528783552e-03  1.7868794285664100e-02  2.8434123467511469e-02  3.8630905182957115e-02  4.8263946138774189e-02  5.7105413383942386e-02  6.4883774084724802e-02  7.1274197428039712e-02  7.5883764746855611e-02  7.8235220550903400e-02  7.7744115519650298e-02  7.3689721373320125e-02  6.5175288410093221e-02  5.1074717061328392e-02  2.9959514599442912e-02  0.0000000000000000e+00  -3.4734970884565543e-02  0.0000000000000000e+00  -5.9281501675830357e-02  -7.5824299553598651e-02  -8.6047316325526230e-02  -9.1258407557271853e-02  -9.2482374609960644e-02  -9.0527625313179552e-02  -8.6037427370319941e-02  -7.9525681605598225e-02  -7.1406668661500527e-02  -6.2015100381097664e-02  -5.1625183275899073e-02  -4.0463315144413398e-02  -2.8721342573076621e-02  -1.6566661337438327e-02  -4.1519322309784834e-03  8.3750655623862306e-03  2.0863566099175779e-02  3.3149386800829732e-02  4.5046896058498972e-02  5.6338398260883348e-02  6.6763049761805748e-02  7.6005539569930378e-02  8.3680101981894003e-02  8.9315241726967046e-02  9.2330225271850516e-02  9.2009302412202440e-02  8.7463933995981763e-02  7.7585557704017025e-02  6.0979024279027613e-02  3.5873526754385029e-02  0.0000000000000000e+00  -4.1233476075951812e-02  0.0000000000000000e+00  -7.0164586698095957e-02  -8.9469440487995433e-02  -1.0121228351771634e-01  -1.0699882667730370e-01  -1.0808715674372152e-01  -1.0547001768265292e-01  -9.9933328653072931e-02  -9.2102501391810962e-02  -8.2474290550795082e-02  -7.1445927816205193e-02  -5.9333937186164955e-02  -4.6394986532641111e-02  -3.2838585476624112e-02  -1.8843234660535862e-02  -4.5673668418197049e-03  9.8382295939326795e-03  2.4218315533390197e-02  3.8402835784286340e-02  5.2193013861513315e-02  6.5350331857620236e-02  7.7581227902835059e-02  8.8520747406444847e-02  9.7715409167053971e-02  1.0459847213093731e-01  1.0846570401059762e-01  1.0843853885370254e-01  1.0342201131248273e-01  9.2044357504547925e-02  7.2578572542773750e-02  4.2832511930352563e-02  0.0000000000000000e+00  -4.8815955411583692e-02  0.0000000000000000e+00  -8.2792985293110424e-02  -1.0520146317777884e-01  -1.1857077199279840e-01  -1.2487376822708821e-01  -1.2565944436196239e-01  -1.2214921067638214e-01  -1.1530745646902529e-01  -1.0589437370238970e-01  -9.4507574190178786e-02  -8.1613958242783294e-02  -6.7578410758888846e-02  -5.2685004555353174e-02  -3.7159166731758023e-02  -2.1183264506787487e-02  -4.9151272497369473e-03  1.1499084100484371e-02  2.7908306887104408e-02  4.4143074255517153e-02  5.9999244237149398e-02  7.5221254231383747e-02  8.9484106784692749e-02  1.0237169633068761e-01  1.1335205578824123e-01  1.2174962997728951e-01  1.2670883972083061e-01  1.2715389143301759e-01  1.2173287776279415e-01  1.0874885390785037e-01  8.6063712136595860e-02  5.0967944386922447e-02  0.0000000000000000e+00  -5.7618808443377613e-02  0.0000000000000000e+00  -9.7352655725496659e-02  -1.2319157678722235e-01  -1.3823668944605047e-01  -1.4491792726031297e-01  -1.4514904527399611e-01  -1.4043844960393764e-01  -1.3197149297732477e-01  -1.2067306596825164e-01  -1.0725819231971243e-01  -9.2272990293983573e-02  -7.6130427182009991e-02  -5.9139900577578071e-02  -4.1533829245175034e-02  -2.3490965786931422e-02  -5.1562145744599251e-03  1.3338401946169707e-02  3.1858512370907158e-02  5.0245264284111198e-02  6.8299610041515094e-02  8.5757651362197262e-02  1.0226757029379427e-01  1.1736223122363990e-01  1.3042524557380319e-01  1.4065420726666691e-01  1.4701537456736397e-01  1.4818987093889247e-01  1.4250888722363164e-01  1.2786898090079940e-01  1.0162157782668430e-01  6.0418817602390339e-02  0.0000000000000000e+00  -6.7786956849070573e-02  0.0000000000000000e+00  -1.1401781796378870e-01  -1.4355955384783511e-01  -1.6022456001486179e-01  -1.6702055249794590e-01  -1.6632456441634527e-01  -1.6000725707165978e-01  -1.4952718273733692e-01  -1.3600629398446831e-01  -1.2029273985516861e-01  -1.0301602808250537e-01  -8.4632845070218107e-02  -6.5468867124155186e-02  -4.5751884556162699e-02  -2.5642506432728040e-02  -5.2601187729663899e-03  1.5294804479530867e-02  3.5916297114900173e-02  5.6473960391022301e-02  7.6785520433456503e-02  9.6593065142139140e-02  1.1552928449151302e-01  1.3308074058985397e-01  1.4854590229319897e-01  1.6098138622613783e-01  1.6914388890006604e-01  1.7142033975663482e-01  1.6574620352829694e-01  1.4950801308048473e-01  1.1941479460422592e-01  7.1325092309825339e-02  0.0000000000000000e+00  -7.9466726252778716e-02  0.0000000000000000e+00  -1.3291986775480938e-01  -1.6631020776401062e-01  -1.8435494719160384e-01  -1.9080889564568851e-01  -1.8864683927322384e-01  -1.8019805029111738e-01  -1.6725411326173037e-01  -1.5116397818236477e-01  -1.3291793821256284e-01  -1.1322189865041860e-01  -9.2563511478275171e-02  -7.1265682521213916e-02  -4.9533857088032138e-02  -2.7492650184479800e-02  -5.2169320829039880e-03  1.7239502778676474e-02  3.9819658276293655e-02  6.2436287232021874e-02  8.4945574527603221e-02  1.0711293487526950e-01  1.2857491769370116e-01  1.4878919915991298e-01  1.6697549665885400e-01  1.8204555676414944e-01  1.9251875649600181e-01  1.9642944022322539e-01  1.9122187019870099e-01  1.7363174563181960e-01  1.3954661709119021e-01  8.3818881497683045e-02  0.0000000000000000e+00  -9.2788710785400866e-02  0.0000000000000000e+00  -1.5408159797677379e-01  -1.9120802956872485e-01  -2.1007955582867560e-01  -2.1544589435503120e-01  -2.1106462197170009e-01  -1.9983987153089142e-01  -1.8395447324699007e-01  -1.6499918677930625e-01  -1.4409458806507780e-01  -1.2199917380902993e-01  -9.9201113464628857e-02  -7.5993078677291631e-02  -5.2531058975704974e-02  -2.8881711178439049e-02  -5.0575101389660716e-03  1.8953389459076243e-02  4.3158989855925679e-02  6.7536089957815834e-02  9.1999709387210124e-02  1.1636652141404676e-01  1.4030519336138558e-01  1.6327525695278736e-01  1.8444656270819929e-01  2.0259983142665658e-01  2.1600811232829151e-01  2.2229962175792650e-01  2.1831136476392704e-01  1.9994086198525107e-01  1.6199321877385559e-01  9.8006548259092302e-02  0.0000000000000000e+00  -1.0782382842275227e-01  0.0000000000000000e+00  -1.7727073059072804e-01  -2.1752051416880427e-01  -2.3614868390818936e-01  -2.3927624470938458e-01  -2.3168626839152590e-01  -2.1697616099816894e-01  -1.9774747345362476e-01  -1.7580588653200294e-01  -1.5235103877243136e-01  -1.2813796117535983e-01  -1.0360587249783552e-01  -7.8977299040010190e-02  -5.4329119945931266e-02  -2.9646981594359068e-02  -4.8647868459045932e-03  2.0107452785872896e-02  4.5356074831723825e-02  7.0937941697487669e-02  9.6849653299452276e-02  1.2298779620737109e-01  1.4909502431043176e-01  1.7468288880502092e-01  1.9893005321385812e-01  2.2054310746831202e-01  2.3758063100654814e-01  2.4724419812374268e-01  2.4564974744190757e-01  2.2761017795889454e-01  1.8645940510588821e-01  1.1392678075034612e-01  0.0000000000000000e+00  -1.2447330371498082e-01  0.0000000000000000e+00  -2.0166645978397113e-01  -2.4348423897251284e-01  -2.5998720437872735e-01  -2.5922833528125261e-01  -2.4728678123262590e-01  -2.2850592505978601e-01  -2.0583625473076050e-01  -1.8118532057187942e-01  -1.5571646959211419e-01  -1.3008679028407355e-01  -1.0461819000524540e-01  -7.9416700862797535e-02  -5.4454533512009698e-02  -2.9622963401534246e-02  -4.7699931336024851e-03  2.0273578098735829e-02  4.5675193611628612e-02  7.1577340020301236e-02  9.8072175702100584e-02  1.2516418427847550e-01  1.5271440264371064e-01  1.8035867864051838e-01  2.0738087281294240e-01  2.3253252155959636e-01  2.5378176362932886e-01  2.6798384688849902e-01  2.7049085345466228e-01  2.5475792424953253e-01  2.1206143533873792e-01  1.3145905568051647e-01  0.0000000000000000e+00  -1.4216755414970161e-01  0.0000000000000000e+00  -2.2504883065154374e-01  -2.6516591727021910e-01  -2.7654030696191767e-01  -2.6987380795491267e-01  -2.5266161323560632e-01  -2.2980597149544685e-01  -2.0432924692861551e-01  -1.7798800313404198e-01  -1.5172440413992677e-01  -1.2597557499557954e-01  -1.0087713629434220e-01  -7.6387678753211979e-02  -5.2364802288954695e-02  -2.8611791998938006e-02  -4.9052389261048136e-03  1.8988639236018359e-02  4.3300819097388477e-02  6.8247638034705196e-02  9.4011928192646949e-02  1.2071577313505422e-01  1.4837472744060282e-01  1.7681797643252076e-01  2.0555986515927829e-01  2.3359208169119625e-01  2.5905854467477496e-01  2.7876820699107674e-01  2.8752125561430447e-01  2.7730067554244414e-01  2.3655621195028839e-01  1.5007598359457536e-01  0.0000000000000000e+00  -1.5892926939799762e-01  0.0000000000000000e+00  -2.4171368287450010e-01  -2.7407208210143164e-01  -2.7634133176653314e-01  -2.6222325213380987e-01  -2.4005870818239314e-01  -2.1457634462718325e-01  -1.8828991608039841e-01  -1.6243153257471141e-01  -1.3751832581988016e-01  -1.1367805341289942e-01  -9.0834741535494576e-02  -6.8810094026589608e-02  -4.7376513427761884e-02  -2.6284850218586300e-02  -5.2783049082161188e-03  1.5901168336870237e-02  3.7510758058979202e-02  5.9802218621741746e-02  8.3015877604331781e-02  1.0736670433941695e-01  1.3301571820717489e-01  1.6001506659859763e-01  1.8820611363231307e-01  2.1703420223537206e-01  2.4521104764778459e-01  2.7012284191533126e-01  2.8682756489930389e-01  2.8648398879636922e-01  2.5431042655597041e-01  1.6809027623636455e-01  0.0000000000000000e+00  -1.6791856503937413e-01  0.0000000000000000e+00  -2.3696416577968191e-01  -2.5271139365271816e-01  -2.4322062547256909e-01  -2.2313143913081071e-01  -1.9946913849786141e-01  -1.7540404822352917e-01  -1.5224748295493659e-01  -1.3043652344400661e-01  -1.1000723908227678e-01  -9.0818103397417846e-02  -7.2655695044221813e-02  -5.5283332662781876e-02  -3.8461521894784537e-02  -2.1955224755085014e-02  -5.5350751523647237e-03  1.1025046237668699e-02  2.7950726111848061e-02  4.5470359302456201e-02  6.3816555558957808e-02  8.3225237022730894e-02  1.0392725342829041e-01  1.2612706792672437e-01  1.4995653896866029e-01  1.7537128593841522e-01  2.0193235519137451e-01  2.2834197204365925e-01  2.5143808638871534e-01  2.6404158998616678e-01  2.5058125433371037e-01  1.7977376233743864e-01  0.0000000000000000e+00  -1.4306365064163737e-01  0.0000000000000000e+00  -1.7503348931056539e-01  -1.7054142795614122e-01  -1.5539709881801597e-01  -1.3803610292347426e-01  -1.2113478709606852e-01  -1.0544745432079888e-01  -9.1076861234813150e-02  -7.7908620969763726e-02  -6.5764231719586091e-02  -5.4454919761429757e-02  -4.3800539420742954e-02  -3.3634516444135121e-02  -2.3802900360566870e-02  -1.4161785674210661e-02  -4.5739226951452107e-03  5.0947365323071097e-03  1.4978764684403182e-02  2.5216522391336923e-02  3.5953960861139507e-02  4.7347518666636529e-02  5.9566286798024601e-02  7.2792730911701756e-02  8.7218459434500795e-02  1.0302800444701292e-01  1.2035438104176102e-01  1.3915772742717433e-01  1.5887305108594418e-01  1.7732166334825128e-01  1.8699795866138522e-01  1.6120686285665314e-01  0.0000000000000000e+00  0.0000000000000000e+00  0.0000000000000000e+00  0.0000000000000000e+00  0.0000000000000000e+00  0.0000000000000000e+00  0.0000000000000000e+00  0.0000000000000000e+00  0.0000000000000000e+00  0.0000000000000000e+00  0.0000000000000000e+00  0.0000000000000000e+00  0.0000000000000000e+00  0.0000000000000000e+00  0.0000000000000000e+00  0.0000000000000000e+00  0.0000000000000000e+00  0.0000000000000000e+00  0.0000000000000000e+00  0.0000000000000000e+00  0.0000000000000000e+00  0.0000000000000000e+00  0.0000000000000000e+00  0.0000000000000000e+00  0.0000000000000000e+00  0.0000000000000000e+00  0.0000000000000000e+00  0.0000000000000000e+00  0.0000000000000000e+00  0.0000000000000000e+00  0.0000000000000000e+00  0.0000000000000000e+00  0.0000000000000000e+00  0.0000000000000000e+00  </DataArray> 
</PointData> 
</Piece>
</UnstructuredGrid>
</VTKFile>