<?xml version="1.0"?>
<VTKFile type="UnstructuredGrid"  version="0.1"  >
<UnstructuredGrid>
<Piece  NumberOfPoints="759" NumberOfCells="1408">
<Points>
<DataArray  type="Float64"  NumberOfComponents="3"  format="ascii">0 0.46875 0  0.03125 0.46875 0  0.03125 0.515625 0  0 0.515625 0  0.0625 0.46875 0  0.0625 0.515625 0  0.09375 0.46875 0  0.09375 0.515625 0  0.125 0.46875 0  0.125 0.515625 0  0.15625 0.46875 0  0.15625 0.515625 0  0.1875 0.46875 0  0.1875 0.515625 0  0.21875 0.46875 0  0.21875 0.515625 0  0.25 0.46875 0  0.25 0.515625 0  0.28125 0.46875 0  0.28125 0.515625 0  0.3125 0.46875 0  0.3125 0.515625 0  0.34375 0.46875 0  0.34375 0.515625 0  0.375 0.46875 0  0.375 0.515625 0  0.40625 0.46875 0  0.40625 0.515625 0  0.4375 0.46875 0  0.4375 0.515625 0  0.46875 0.46875 0  0.46875 0.515625 0  0.5 0.46875 0  0.5 0.515625 0  0.53125 0.46875 0  0.53125 0.515625 0  0.5625 0.46875 0  0.5625 0.515625 0  0.59375 0.46875 0  0.59375 0.515625 0  0.625 0.46875 0  0.625 0.515625 0  0.65625 0.46875 0  0.65625 0.515625 0  0.6875 0.46875 0  0.6875 0.515625 0  0.71875 0.46875 0  0.71875 0.515625 0  0.75 0.46875 0  0.75 0.515625 0  0.78125 0.46875 0  0.78125 0.515625 0  0.8125 0.46875 0  0.8125 0.515625 0  0.84375 0.46875 0  0.84375 0.515625 0  0.875 0.46875 0  0.875 0.515625 0  0.90625 0.46875 0  0.90625 0.515625 0  0.9375 0.46875 0  0.9375 0.515625 0  0.96875 0.46875 0  0.96875 0.515625 0  1 0.46875 0  1 0.515625 0  0.03125 0.5625 0  0 0.5625 0  0.0625 0.5625 0  0.09375 0.5625 0  0.125 0.5625 0  0.15625 0.5625 0  0.1875 0.5625 0  0.21875 0.5625 0  0.25 0.5625 0  0.28125 0.5625 0  0.3125 0.5625 0  0.34375 0.5625 0  0.375 0.5625 0  0.40625 0.5625 0  0.4375 0.5625 0  0.46875 0.5625 0  0.5 0.5625 0  0.53125 0.5625 0  0.5625 0.5625 0  0.59375 0.5625 0  0.625 0.5625 0  0.65625 0.5625 0  0.6875 0.5625 0  0.71875 0.5625 0  0.75 0.5625 0  0.78125 0.5625 0  0.8125 0.5625 0  0.84375 0.5625 0  0.875 0.5625 0  0.90625 0.5625 0  0.9375 0.5625 0  0.96875 0.5625 0  1 0.5625 0  0.03125 0.609375 0  0 0.609375 0  0.0625 0.609375 0  0.09375 0.609375 0  0.125 0.609375 0  0.15625 0.609375 0  0.1875 0.609375 0  0.21875 0.609375 0  0.25 0.609375 0  0.28125 0.609375 0  0.3125 0.609375 0  0.34375 0.609375 0  0.375 0.609375 0  0.40625 0.609375 0  0.4375 0.609375 0  0.46875 0.609375 0  0.5 0.609375 0  0.53125 0.609375 0  0.5625 0.609375 0  0.59375 0.609375 0  0.625 0.609375 0  0.65625 0.609375 0  0.6875 0.609375 0  0.71875 0.609375 0  0.75 0.609375 0  0.78125 0.609375 0  0.8125 0.609375 0  0.84375 0.609375 0  0.875 0.609375 0  0.90625 0.609375 0  0.9375 0.609375 0  0.96875 0.609375 0  1 0.609375 0  0.03125 0.65625 0  0 0.65625 0  0.0625 0.65625 0  0.09375 0.65625 0  0.125 0.65625 0  0.15625 0.65625 0  0.1875 0.65625 0  0.21875 0.65625 0  0.25 0.65625 0  0.28125 0.65625 0  0.3125 0.65625 0  0.34375 0.65625 0  0.375 0.65625 0  0.40625 0.65625 0  0.4375 0.65625 0  0.46875 0.65625 0  0.5 0.65625 0  0.53125 0.65625 0  0.5625 0.65625 0  0.59375 0.65625 0  0.625 0.65625 0  0.65625 0.65625 0  0.6875 0.65625 0  0.71875 0.65625 0  0.75 0.65625 0  0.78125 0.65625 0  0.8125 0.65625 0  0.84375 0.65625 0  0.875 0.65625 0  0.90625 0.65625 0  0.9375 0.65625 0  0.96875 0.65625 0  1 0.65625 0  0.03125 0.703125 0  0 0.703125 0  0.0625 0.703125 0  0.09375 0.703125 0  0.125 0.703125 0  0.15625 0.703125 0  0.1875 0.703125 0  0.21875 0.703125 0  0.25 0.703125 0  0.28125 0.703125 0  0.3125 0.703125 0  0.34375 0.703125 0  0.375 0.703125 0  0.40625 0.703125 0  0.4375 0.703125 0  0.46875 0.703125 0  0.5 0.703125 0  0.53125 0.703125 0  0.5625 0.703125 0  0.59375 0.703125 0  0.625 0.703125 0  0.65625 0.703125 0  0.6875 0.703125 0  0.71875 0.703125 0  0.75 0.703125 0  0.78125 0.703125 0  0.8125 0.703125 0  0.84375 0.703125 0  0.875 0.703125 0  0.90625 0.703125 0  0.9375 0.703125 0  0.96875 0.703125 0  1 0.703125 0  0.03125 0.75 0  0 0.75 0  0.0625 0.75 0  0.09375 0.75 0  0.125 0.75 0  0.15625 0.75 0  0.1875 0.75 0  0.21875 0.75 0  0.25 0.75 0  0.28125 0.75 0  0.3125 0.75 0  0.34375 0.75 0  0.375 0.75 0  0.40625 0.75 0  0.4375 0.75 0  0.46875 0.75 0  0.5 0.75 0  0.53125 0.75 0  0.5625 0.75 0  0.59375 0.75 0  0.625 0.75 0  0.65625 0.75 0  0.6875 0.75 0  0.71875 0.75 0  0.75 0.75 0  0.78125 0.75 0  0.8125 0.75 0  0.84375 0.75 0  0.875 0.75 0  0.90625 0.75 0  0.9375 0.75 0  0.96875 0.75 0  1 0.75 0  0.03125 0.796875 0  0 0.796875 0  0.0625 0.796875 0  0.09375 0.796875 0  0.125 0.796875 0  0.15625 0.796875 0  0.1875 0.796875 0  0.21875 0.796875 0  0.25 0.796875 0  0.28125 0.796875 0  0.3125 0.796875 0  0.34375 0.796875 0  0.375 0.796875 0  0.40625 0.796875 0  0.4375 0.796875 0  0.46875 0.796875 0  0.5 0.796875 0  0.53125 0.796875 0  0.5625 0.796875 0  0.59375 0.796875 0  0.625 0.796875 0  0.65625 0.796875 0  0.6875 0.796875 0  0.71875 0.796875 0  0.75 0.796875 0  0.78125 0.796875 0  0.8125 0.796875 0  0.84375 0.796875 0  0.875 0.796875 0  0.90625 0.796875 0  0.9375 0.796875 0  0.96875 0.796875 0  1 0.796875 0  0.03125 0.84375 0  0 0.84375 0  0.0625 0.84375 0  0.09375 0.84375 0  0.125 0.84375 0  0.15625 0.84375 0  0.1875 0.84375 0  0.21875 0.84375 0  0.25 0.84375 0  0.28125 0.84375 0  0.3125 0.84375 0  0.34375 0.84375 0  0.375 0.84375 0  0.40625 0.84375 0  0.4375 0.84375 0  0.46875 0.84375 0  0.5 0.84375 0  0.53125 0.84375 0  0.5625 0.84375 0  0.59375 0.84375 0  0.625 0.84375 0  0.65625 0.84375 0  0.6875 0.84375 0  0.71875 0.84375 0  0.75 0.84375 0  0.78125 0.84375 0  0.8125 0.84375 0  0.84375 0.84375 0  0.875 0.84375 0  0.90625 0.84375 0  0.9375 0.84375 0  0.96875 0.84375 0  1 0.84375 0  0.03125 0.890625 0  0 0.890625 0  0.0625 0.890625 0  0.09375 0.890625 0  0.125 0.890625 0  0.15625 0.890625 0  0.1875 0.890625 0  0.21875 0.890625 0  0.25 0.890625 0  0.28125 0.890625 0  0.3125 0.890625 0  0.34375 0.890625 0  0.375 0.890625 0  0.40625 0.890625 0  0.4375 0.890625 0  0.46875 0.890625 0  0.5 0.890625 0  0.53125 0.890625 0  0.5625 0.890625 0  0.59375 0.890625 0  0.625 0.890625 0  0.65625 0.890625 0  0.6875 0.890625 0  0.71875 0.890625 0  0.75 0.890625 0  0.78125 0.890625 0  0.8125 0.890625 0  0.84375 0.890625 0  0.875 0.890625 0  0.90625 0.890625 0  0.9375 0.890625 0  0.96875 0.890625 0  1 0.890625 0  0.03125 0.9375 0  0 0.9375 0  0.0625 0.9375 0  0.09375 0.9375 0  0.125 0.9375 0  0.15625 0.9375 0  0.1875 0.9375 0  0.21875 0.9375 0  0.25 0.9375 0  0.28125 0.9375 0  0.3125 0.9375 0  0.34375 0.9375 0  0.375 0.9375 0  0.40625 0.9375 0  0.4375 0.9375 0  0.46875 0.9375 0  0.5 0.9375 0  0.53125 0.9375 0  0.5625 0.9375 0  0.59375 0.9375 0  0.625 0.9375 0  0.65625 0.9375 0  0.6875 0.9375 0  0.71875 0.9375 0  0.75 0.9375 0  0.78125 0.9375 0  0.8125 0.9375 0  0.84375 0.9375 0  0.875 0.9375 0  0.90625 0.9375 0  0.9375 0.9375 0  0.96875 0.9375 0  1 0.9375 0  0.03125 0.984375 0  0 0.984375 0  0.0625 0.984375 0  0.09375 0.984375 0  0.125 0.984375 0  0.15625 0.984375 0  0.1875 0.984375 0  0.21875 0.984375 0  0.25 0.984375 0  0.28125 0.984375 0  0.3125 0.984375 0  0.34375 0.984375 0  0.375 0.984375 0  0.40625 0.984375 0  0.4375 0.984375 0  0.46875 0.984375 0  0.5 0.984375 0  0.53125 0.984375 0  0.5625 0.984375 0  0.59375 0.984375 0  0.625 0.984375 0  0.65625 0.984375 0  0.6875 0.984375 0  0.71875 0.984375 0  0.75 0.984375 0  0.78125 0.984375 0  0.8125 0.984375 0  0.84375 0.984375 0  0.875 0.984375 0  0.90625 0.984375 0  0.9375 0.984375 0  0.96875 0.984375 0  1 0.984375 0  0.03125 1.03125 0  0 1.03125 0  0.0625 1.03125 0  0.09375 1.03125 0  0.125 1.03125 0  0.15625 1.03125 0  0.1875 1.03125 0  0.21875 1.03125 0  0.25 1.03125 0  0.28125 1.03125 0  0.3125 1.03125 0  0.34375 1.03125 0  0.375 1.03125 0  0.40625 1.03125 0  0.4375 1.03125 0  0.46875 1.03125 0  0.5 1.03125 0  0.53125 1.03125 0  0.5625 1.03125 0  0.59375 1.03125 0  0.625 1.03125 0  0.65625 1.03125 0  0.6875 1.03125 0  0.71875 1.03125 0  0.75 1.03125 0  0.78125 1.03125 0  0.8125 1.03125 0  0.84375 1.03125 0  0.875 1.03125 0  0.90625 1.03125 0  0.9375 1.03125 0  0.96875 1.03125 0  1 1.03125 0  0.03125 1.078125 0  0 1.078125 0  0.0625 1.078125 0  0.09375 1.078125 0  0.125 1.078125 0  0.15625 1.078125 0  0.1875 1.078125 0  0.21875 1.078125 0  0.25 1.078125 0  0.28125 1.078125 0  0.3125 1.078125 0  0.34375 1.078125 0  0.375 1.078125 0  0.40625 1.078125 0  0.4375 1.078125 0  0.46875 1.078125 0  0.5 1.078125 0  0.53125 1.078125 0  0.5625 1.078125 0  0.59375 1.078125 0  0.625 1.078125 0  0.65625 1.078125 0  0.6875 1.078125 0  0.71875 1.078125 0  0.75 1.078125 0  0.78125 1.078125 0  0.8125 1.078125 0  0.84375 1.078125 0  0.875 1.078125 0  0.90625 1.078125 0  0.9375 1.078125 0  0.96875 1.078125 0  1 1.078125 0  0.03125 1.125 0  0 1.125 0  0.0625 1.125 0  0.09375 1.125 0  0.125 1.125 0  0.15625 1.125 0  0.1875 1.125 0  0.21875 1.125 0  0.25 1.125 0  0.28125 1.125 0  0.3125 1.125 0  0.34375 1.125 0  0.375 1.125 0  0.40625 1.125 0  0.4375 1.125 0  0.46875 1.125 0  0.5 1.125 0  0.53125 1.125 0  0.5625 1.125 0  0.59375 1.125 0  0.625 1.125 0  0.65625 1.125 0  0.6875 1.125 0  0.71875 1.125 0  0.75 1.125 0  0.78125 1.125 0  0.8125 1.125 0  0.84375 1.125 0  0.875 1.125 0  0.90625 1.125 0  0.9375 1.125 0  0.96875 1.125 0  1 1.125 0  0.03125 1.171875 0  0 1.171875 0  0.0625 1.171875 0  0.09375 1.171875 0  0.125 1.171875 0  0.15625 1.171875 0  0.1875 1.171875 0  0.21875 1.171875 0  0.25 1.171875 0  0.28125 1.171875 0  0.3125 1.171875 0  0.34375 1.171875 0  0.375 1.171875 0  0.40625 1.171875 0  0.4375 1.171875 0  0.46875 1.171875 0  0.5 1.171875 0  0.53125 1.171875 0  0.5625 1.171875 0  0.59375 1.171875 0  0.625 1.171875 0  0.65625 1.171875 0  0.6875 1.171875 0  0.71875 1.171875 0  0.75 1.171875 0  0.78125 1.171875 0  0.8125 1.171875 0  0.84375 1.171875 0  0.875 1.171875 0  0.90625 1.171875 0  0.9375 1.171875 0  0.96875 1.171875 0  1 1.171875 0  0.03125 1.21875 0  0 1.21875 0  0.0625 1.21875 0  0.09375 1.21875 0  0.125 1.21875 0  0.15625 1.21875 0  0.1875 1.21875 0  0.21875 1.21875 0  0.25 1.21875 0  0.28125 1.21875 0  0.3125 1.21875 0  0.34375 1.21875 0  0.375 1.21875 0  0.40625 1.21875 0  0.4375 1.21875 0  0.46875 1.21875 0  0.5 1.21875 0  0.53125 1.21875 0  0.5
[...]
<PointData  Scalars="p"> 
<DataArray  type="Float64"  Name="p"  format="ascii">0.0000000000000000e+00  -9.4262629077863022e-03  -9.8744912635654394e-03  0.0000000000000000e+00  -1.6254135582777204e-02  -1.7002826108260861e-02  -2.0955994301107062e-02  -2.1912212936116133e-02  -2.3931995785942659e-02  -2.5027047854442864e-02  -2.5512324960076656e-02  -2.6690420226380816e-02  -2.5966227936984207e-02  -2.7179953350898251e-02  -2.5512144327467137e-02  -2.6720340048606225e-02  -2.4326995143335806e-02  -2.5493765998260531e-02  -2.2554310975768831e-02  -2.3648361707163595e-02  -2.0310994396709175e-02  -2.1305320315250321e-02  -1.7693040063049306e-02  -1.8564605750977143e-02  -1.4780236132584655e-02  -1.5509856230646248e-02  -1.1640126193117328e-02  -1.2212281838569140e-02  -8.3312825298044926e-03  -8.7340890506658678e-03  -4.9061581314759376e-03  -5.1312872359911181e-03  -1.4135213170732885e-03  -1.4562477237401055e-03  2.0993187258033174e-03  2.2400889120533746e-03  5.5844339657428266e-03  5.9060299026576311e-03  8.9911932971693531e-03  9.4870488354447842e-03  1.2264139160204876e-02  1.2923574687914901e-02  1.5340661832149730e-02  1.6148673715748803e-02  1.8148386278619727e-02  1.9085364450888574e-02  2.0602125739315066e-02  2.1643588570153281e-02  2.2600296359226536e-02  2.3716563081340403e-02  2.4020540154039052e-02  2.5176438446827983e-02  2.4714440094679067e-02  2.5868948304017883e-02  2.4500980809733498e-02  2.5606957102134845e-02  2.3158555743352578e-02  2.4162501012287535e-02  2.0415058496572241e-02  2.1257337771726094e-02  1.5935319490828732e-02  1.6551720805156260e-02  9.3041155078078322e-03  9.6320865273682946e-03  0.0000000000000000e+00  0.0000000000000000e+00  -1.0919505317490344e-02  0.0000000000000000e+00  -1.8823145183415758e-02  -2.4290519764996917e-02  -2.7785187502038022e-02  -2.9679393233483425e-02  -3.0272978188502539e-02  -2.9808520500845769e-02  -2.8482984168710253e-02  -2.6457458987457844e-02  -2.3864556732717888e-02  -2.0814860240673711e-02  -1.7401772466500643e-02  -1.3705927333306639e-02  -9.7984896726744149e-03  -5.7443717820758640e-03  -1.6046930323417626e-03  2.5606793918061385e-03  6.6909876698440628e-03  1.0722225884162368e-02  1.4584945248108890e-02  1.8201690561928253e-02  2.1484333074477967e-02  2.4330797518829533e-02  2.6621434330023414e-02  2.8214386985695127e-02  2.8940164889758434e-02  2.8594725176780626e-02  2.6931122566647377e-02  2.3649044687483540e-02  1.8382118297589452e-02  1.0682183774545625e-02  0.0000000000000000e+00  -1.2507051854338804e-02  0.0000000000000000e+00  -2.1572474445815965e-02  -2.7862693019182372e-02  -3.1905644881543190e-02  -3.4121845279790140e-02  -3.4848495450281493e-02  -3.4357505241742178e-02  -3.2870053467617129e-02  -3.0567290918879782e-02  -2.7599523261718641e-02  -2.4092692766342468e-02  -2.0154507018658580e-02  -1.5878524203363623e-02  -1.1348476464955131e-02  -6.6411068192442548e-03  -1.8294801763381716e-03  3.0147813276030933e-03  7.8186410737967650e-03  1.2505492144192320e-02  1.6992358591815339e-02  2.1187454181366139e-02  2.4986949790807910e-02  2.8271763820789948e-02  3.0903293752228951e-02  3.2718682598052697e-02  3.3524464963809071e-02  3.3089049888961039e-02  3.1132658492165271e-02  2.7314935554265094e-02  2.1218483990359319e-02  1.2327647947123144e-02  0.0000000000000000e+00  -1.4624826124013234e-02  0.0000000000000000e+00  -2.5215621316976407e-02  -3.2565232500877686e-02  -3.7295550480938564e-02  -3.9898183009296095e-02  -4.0764575842231691e-02  -4.0209462317190407e-02  -3.8487879007282420e-02  -3.5809225259417050e-02  -3.2346977230670967e-02  -2.8247568877252195e-02  -2.3636101887246293e-02  -1.8622418999338298e-02  -1.3304608694560545e-02  -7.7736310996345797e-03  -2.1157479075042751e-03  3.5836419753705441e-03  9.2379026661015603e-03  1.4755604882634188e-02  2.0038295471434500e-02  2.4976832817768767e-02  2.9448499743936617e-02  3.3312609164135150e-02  3.6406306644694811e-02  3.8538429980632241e-02  3.9482648493805075e-02  3.8967868622041886e-02  3.6666394461000139e-02  3.2177809301356324e-02  2.5008055380930781e-02  1.4540931923723721e-02  0.0000000000000000e+00  -1.7295212255597794e-02  0.0000000000000000e+00  -2.9784492936703051e-02  -3.8429441442673608e-02  -4.3978992673069775e-02  -4.7020939255241388e-02  -4.8020860794620465e-02  -4.7350875464474210e-02  -4.5311877157832470e-02  -4.2149652317047488e-02  -3.8068099801390545e-02  -3.3238299659674508e-02  -2.7807113601481810e-02  -2.1902366399657595e-02  -1.5639143208108771e-02  -9.1229517939197414e-03  -2.4549851150679840e-03  4.2657043950614908e-03  1.0937339701440172e-02  1.7453383370139332e-02  2.3697797631974230e-02  2.9542523887280583e-02  3.4842396809710380e-02  3.9431323547515780e-02  4.3116002774801647e-02  4.5669588964820478e-02  4.6822375168194673e-02  4.6250729959832294e-02  4.3561590931137338e-02  3.8272557825620855e-02  2.9784573043001722e-02  1.7345402284877052e-02  0.0000000000000000e+00  -2.0566337771486278e-02  0.0000000000000000e+00  -3.5355724558917903e-02  -4.5545781776406620e-02  -5.2049068337443154e-02  -5.5578315164609801e-02  -5.6695231452448668e-02  -5.5846885422173267e-02  -5.3392926457026139e-02  -4.9626150533443186e-02  -4.4787837027378825e-02  -3.9079953245177455e-02  -3.2674081339006164e-02  -2.5719565336128195e-02  -1.8348826248831815e-02  -1.0683939679568426e-02  -2.8399218431919403e-03  5.0691233019834539e-03  1.2927645224153688e-02  2.0612394536034015e-02  2.7990083628556685e-02  3.4910963549637776e-02  4.1205372726796544e-02  4.6676632005890020e-02  5.1095174161374053e-02  5.4189224054651534e-02  5.5634330257866182e-02  5.5038737501728795e-02  5.1924501126125573e-02  4.5701954128527462e-02  3.5635327496070519e-02  2.0796116326059658e-02  0.0000000000000000e+00  -2.4505591448229939e-02  0.0000000000000000e+00  -4.2037520371068685e-02  -5.4043303876905931e-02  -6.1640979527521851e-02  -6.5700982839708072e-02  -6.6906854893707970e-02  -6.5800698706099919e-02  -6.2816588372841209e-02  -5.8306089181608504e-02  -5.2556939329782504e-02  -4.5807914851928935e-02  -3.8260094897378298e-02  -3.0086099311613181e-02  -2.1437934365060453e-02  -1.2453202591745000e-02  -3.2618894199413031e-03  6.0093063255541009e-03  1.5229948777568607e-02  2.4262365473644687e-02  3.2954002569636993e-02  4.1133663642719656e-02  4.8603088045093105e-02  5.5131250189731376e-02  6.0444449193432219e-02  6.4216384440060670e-02  6.6053949596935904e-02  6.5479613825421071e-02  6.1907531704210490e-02  5.4611694153402557e-02  4.2682833335959534e-02  2.4969748096598032e-02  0.0000000000000000e+00  -2.9195996298356182e-02  0.0000000000000000e+00  -4.9961999751795230e-02  -6.4077751712246542e-02  -7.2915408211565974e-02  -7.7541406024432311e-02  -7.8791456215661623e-02  -7.7326546000741056e-02  -7.3673829261737100e-02  -6.8257754266412229e-02  -6.1422957736921073e-02  -5.3452279322305597e-02  -4.4580773256158876e-02  -3.5007035687602897e-02  -2.4902937678370218e-02  -1.4421839524387669e-02  -3.7063505422820896e-03  7.1046128784409412e-03  1.7869043050276340e-02  2.8434362143843324e-02  3.8631133700699608e-02  4.8264164447387820e-02  5.7105621404289313e-02  6.4883971645427765e-02  7.1274384179932621e-02  7.5883940047837870e-02  7.8235383309861600e-02  7.7744263984448170e-02  7.3689852840992678e-02  6.5175398829719566e-02  5.1074800488227108e-02  2.9959562444814875e-02  0.0000000000000000e+00  -3.4734859558846219e-02  0.0000000000000000e+00  -5.9281311522797205e-02  -7.5824054266820567e-02  -8.6047033197270001e-02  -9.1258099231582859e-02  -9.2482050360465667e-02  -9.0527291973517818e-02  -8.6037090009808706e-02  -7.9525344017942534e-02  -7.1406333716071566e-02  -6.2014770273797891e-02  -5.1624859705933168e-02  -4.0462999438096239e-02  -2.8721035769303505e-02  -1.6566364246605993e-02  -4.1516454762760349e-03  8.3753415144657162e-03  2.0863830913245444e-02  3.3149640247846508e-02  4.5047137987207851e-02  5.6338628561969362e-02  6.6763268320709224e-02  7.6005746203438404e-02  8.3680296353258729e-02  8.9315423230983362e-02  9.2330392880103779e-02  9.2009454462981741e-02  8.7464067908282456e-02  7.7585669586076739e-02  6.0979108391265108e-02  3.5873574771749406e-02  0.0000000000000000e+00  -4.1233358367291639e-02  0.0000000000000000e+00  -7.0164385739278301e-02  -8.9469181308636389e-02  -1.0121198432010389e-01  -1.0699850072967187e-01  -1.0808681375715842e-01  -1.0546966481028663e-01  -9.9932971213175750e-02  -9.2102143387347096e-02  -8.2473935040693017e-02  -7.1445577177092837e-02  -5.9333593295005170e-02  -4.6394650891597708e-02  -3.2838259297696473e-02  -1.8842918921553594e-02  -4.5670623242647125e-03  9.8385222780481979e-03  2.4218595919731353e-02  3.8403103534232243e-02  5.2193268736381089e-02  6.5350573684402946e-02  7.7581456528100945e-02  8.8520962633798134e-02  9.7715610672318140e-02  1.0459865934845637e-01  1.0846587597958468e-01  1.0843869401160157e-01  1.0342214721392441e-01  9.2044470438470610e-02  7.2578657007748612e-02  4.2832559915493777e-02  0.0000000000000000e+00  -4.8815831980055173e-02  0.0000000000000000e+00  -8.2792774631105695e-02  -1.0520119148359723e-01  -1.1857045825133632e-01  -1.2487342623564489e-01  -1.2565908419982857e-01  -1.2214883976803999e-01  -1.1530708034995076e-01  -1.0589399656638725e-01  -9.4507199276881490e-02  -8.1613588108562354e-02  -6.7578047462454868e-02  -5.2684649782969800e-02  -3.7158821879036033e-02  -2.1182930731432591e-02  -4.9148055048062016e-03  1.1499393043870808e-02  2.7908602422064017e-02  4.4143355921087327e-02  5.9999511695236679e-02  7.5221507234918009e-02  8.9484345132920293e-02  1.0237191980750442e-01  1.1335226407841552e-01  1.2174982255330587e-01  1.2670901569169510e-01  1.2715404934086380e-01  1.2173301530865595e-01  1.0874896757879250e-01  8.6063796696656564e-02  5.0967992180538782e-02  0.0000000000000000e+00  -5.7618680225161104e-02  0.0000000000000000e+00  -9.7352436911551946e-02  -1.2319129450127904e-01  -1.3823636327351335e-01  -1.4491757139393513e-01  -1.4514867006612450e-01  -1.4043806268535591e-01  -1.3197110005900173e-01  -1.2067267141050346e-01  -1.0725779953170125e-01  -9.2272602009692145e-02  -7.6130045646686337e-02  -5.9139527670664174e-02  -4.1533466558592406e-02  -2.3490614672961423e-02  -5.1558761744564790e-03  1.3338726684356022e-02  3.1858822679331419e-02  5.0245559560956096e-02  6.8299889831171620e-02  8.5757915326455908e-02  1.0226781816942418e-01  1.1736246276223675e-01  1.3042546045936784e-01  1.4065440500397708e-01  1.4701555433283370e-01  1.4819003138159748e-01  1.4250902619789546e-01  1.2786909510491351e-01  1.0162166231084972e-01  6.0418865097143733e-02  0.0000000000000000e+00  -6.7786825097132491e-02  0.0000000000000000e+00  -1.1401759306415937e-01  -1.4355926352031151e-01  -1.6022422420216234e-01  -1.6702018561260090e-01  -1.6632417696073146e-01  -1.6000685680010623e-01  -1.4952677548371984e-01  -1.3600588424501517e-01  -1.2029233119365663e-01  -1.0301562340652931e-01  -8.4632446815125398e-02  -6.5468477371439834e-02  -4.5751505106713879e-02  -2.5642138849357940e-02  -5.2597644035886687e-03  1.5295144489222100e-02  3.5916621813399489e-02  5.6474269011154314e-02  7.6785812377428167e-02  9.6593339956030894e-02  1.1552954182630369e-01  1.3308098014430075e-01  1.4854612373340745e-01  1.6098158907654006e-01  1.6914407239702398e-01  1.7142050265376596e-01  1.6574634383648842e-01  1.4950812771800809e-01  1.1941487892247872e-01  7.1325139446889632e-02  0.0000000000000000e+00  -7.9466592589643351e-02  0.0000000000000000e+00  -1.3291963943813992e-01  -1.6630991268234080e-01  -1.8435460533379605e-01  -1.9080852142290111e-01  -1.8864644318548010e-01  -1.8019764011512876e-01  -1.6725369489025163e-01  -1.5116355620964808e-01  -1.3291751633678509e-01  -1.1322147994473912e-01  -9.2563098567933919e-02  -7.1265277695541071e-02  -4.9533462366998758e-02  -2.7492267355358344e-02  -5.2165627181697885e-03  1.7239857314170499e-02  3.9819996821884987e-02  6.2436608826966875e-02  8.4945878400673747e-02  1.0711322042466283e-01  1.2857518445259444e-01  1.4878944674383873e-01  1.6697572468977492e-01  1.8204576476491022e-01  1.9251894374814094e-01  1.9642960557711969e-01  1.9122201182073631e-01  1.7363186066609551e-01  1.3954670120208740e-01  8.3818928247458582e-02  0.0000000000000000e+00  -9.2788577272644723e-02  0.0000000000000000e+00  -1.5408136963189356e-01  -1.9120773391081924e-01  -2.1007921250696435e-01  -2.1544551751010255e-01  -2.1106422191866264e-01  -1.9983945594886848e-01  -1.8395404801111667e-01  -1.6499875653467666e-01  -1.4409415661626970e-01  -1.2199874437874828e-01  -9.9200688860245648e-02  -7.5992661393672820e-02  -5.2530651254743779e-02  -2.8881315039476031e-02  -5.0571273914001933e-03  1.8953757213109275e-02  4.3159341223119263e-02  6.7536423754363972e-02  9.2000024634235900e-02  1.1636681732340121e-01  1.4030546930813051e-01  1.6327551242927479e-01  1.8444679725487231e-01  2.0260004453318595e-01  2.1600830329724161e-01  2.2229978952147780e-01  2.1831150763903759e-01  1.9994097734629915e-01  1.6199330261143863e-01  9.8006594578765982e-02  0.0000000000000000e+00  -1.0782369765564799e-01  0.0000000000000000e+00  -1.7727050649191919e-01  -2.1752022322615411e-01  -2.3614834496608228e-01  -2.3927587131952702e-01  -2.3168587047152159e-01  -2.1697574598992869e-01  -1.9774704712336866e-01  -1.7580545351516877e-01  -1.5235060293853989e-01  -1.2813752586691857e-01  -1.0360544068191867e-01  -7.8976873400069023e-02  -5.4328702933615719e-02  -2.9646575454498121e-02  -4.8643936244843651e-03  2.0107831242856446e-02  4.5356436883782936e-02  7.0938285914909208e-02  9.6849978464398412e-02  1.2298810130686542e-01  1.4909530851690725e-01  1.7468315144006569e-01  1.9893029368907345e-01  2.2054332519695238e-01  2.3758082527766761e-01  2.4724436792856835e-01  2.4564989123885150e-01  2.2761029335800881e-01  1.8645948844325186e-01  1.1392682650680293e-01  0.0000000000000000e+00  -1.2447317895667077e-01  0.0000000000000000e+00  -2.0166624533456351e-01  -2.4348395949377122e-01  -2.5998687736473425e-01  -2.5922797332901804e-01  -2.4728639361918159e-01  -2.2850551882700953e-01  -2.0583583542362274e-01  -1.8118489273381622e-01  -1.5571603709294116e-01  -1.3008635653172831e-01  -1.0461775807852434e-01  -7.9416273590959457e-02  -5.4454113518418522e-02  -2.9622553123976145e-02  -4.7695948293161716e-03  2.0273962357082207e-02  4.5675561943825091e-02  7.1577690747482339e-02  9.8072507352748611e-02  1.2516449558827034e-01  1.5271469254538517e-01  1.8035894623874374e-01  2.0738111733940545e-01  2.3253274230028495e-01  2.5378195981497481e-01  2.6798401753719464e-01  2.7049099715204755e-01  2.5475803884850035e-01  2.1206151755153699e-01  1.3145910051981960e-01  0.0000000000000000e+00  -1.4216743952738994e-01  0.0000000000000000e+00  -2.2504863275821679e-01  -2.6516565801550862e-01  -2.7654000187025596e-01  -2.6987346825664077e-01  -2.5266124728831324e-01  -2.2980558574391549e-01  -2.0432884654811240e-01  -1.7798759245564175e-01  -1.5172398692845646e-01  -1.2597515462803319e-01  -1.0087671587053333e-01  -7.6387261161770401e-02  -5.2364390243551419e-02  -2.8611388054471984e-02  -4.9048454819122719e-03  1.8989019940814384e-02  4.3301184993016190e-02  6.8247987231086438e-02  9.4012258988785416e-02  1.2071608402429976e-01  1.4837501710856341e-01  1.7681824374425495e-01  2.0556010913009071e-01  2.3359230143387233e-01  2.5905873931387541e-01  2.7876837553178058e-01  2.8752139674917987e-01  2.7730078737584213e-01  2.3655629161548447e-01  1.5007602672792050e-01  0.0000000000000000e+00  -1.5892917020204231e-01  0.0000000000000000e+00  -2.4171351055288612e-01  -2.7407185477792567e-01  -2.7634106231218108e-01  -2.6222294994576262e-01  -2.4005838036423827e-01  -2.1457599677009442e-01  -1.8828955277770720e-01  -1.6243115775759726e-01  -1.3751794297427311e-01  -1.1367766571831514e-01  -9.0834351951485620e-02  -6.8809705344381605e-02  -4.7376128298820756e-02  -2.6284471167669864e-02  -5.2779343359489637e-03  1.5901528158267963e-02  3.7511104993751411e-02  5.9802550680768833e-02  8.3016192955117890e-02  1.0736700131402041e-01  1.3301599530588382e-01  1.6001532248639655e-01  1.8820634712413595e-01  2.1703441226417960e-01  2.4521123320769525e-01  2.7012300196707478e-01  2.8682769822020737e-01  2.8648409375174927e-01  2.5431050076225459e-01  1.6809031608541997e-01  0.0000000000000000e+00  -1.6791848821042993e-01  0.0000000000000000e+00  -2.3696403120191489e-01  -2.5271121455547169e-01  -2.4322041131242897e-01  -2.2313119691810110e-01  -1.9946887365177429e-01  -1.7540376512165690e-01  -1.5224718528690212e-01  -1.3043621443978642e-01  -1.1000692165961182e-01  -9.0817780256680219e-02  -7.2655368728387681e-02  -5.5283005594024485e-02  -3.8461196395269667e-02  -2.1954903056918197e-02  -5.5347593999964051e-03  1.1025353990071101e-02  2.7951023906394798e-02  4.5470645285237296e-02  6.3816827988346189e-02  8.3225494276835704e-02  1.0392749401022720e-01  1.2612729046584217e-01  1.4995674221497921e-01  1.7537146874710971e-01  2.0193251649163230e-01  2.2834211078309913e-01  2.5143820144044049e-01  2.6404167999659961e-01  2.5058131747704843e-01  1.7977379593464282e-01  0.0000000000000000e+00  -1.4306360563472523e-01  0.0000000000000000e+00  -1.7503340964461075e-01  -1.7054132077341486e-01  -1.5539696929149618e-01  -1.3803595499562357e-01  -1.2113462391779171e-01  -1.0544727851983551e-01  -9.1076675086454381e-02  -7.7908426508204690e-02  -6.5764030811499771e-02  -5.4454714154741027e-02  -4.3800330776431425e-02  -3.3634306356350237e-02  -2.3802690368629212e-02  -1.4161577268806388e-02  -4.5737173203511594e-03  5.0949374800053210e-03  1.4978959859058743e-02  2.5216710501765577e-02  3.5954140675596019e-02  4.7347689017334077e-02  5.9566446584662806e-02  7.2792879102943908e-02  8.7218595066243410e-02  1.0302812661571548e-01  1.2035448889011557e-01  1.3915782011822517e-01  1.5887312776003079e-01  1.7732172305282465e-01  1.8699800023800428e-01  1.6120688475838546e-01  0.0000000000000000e+00  0.0000000000000000e+00  0.0000000000000000e+00  0.0000000000000000e+00  0.0000000000000000e+00  0.0000000000000000e+00  0.0000000000000000e+00  0.0000000000000000e+00  0.0000000000000000e+00  0.0000000000000000e+00  0.0000000000000000e+00  0.0000000000000000e+00  0.0000000000000000e+00  0.0000000000000000e+00  0.0000000000000000e+00  0.0000000000000000e+00  0.0000000000000000e+00  0.0000000000000000e+00  0.0000000000000000e+00  0.0000000000000000e+00  0.0000000000000000e+00  0.0000000000000000e+00  0.0000000000000000e+00  0.0000000000000000e+00  0.0000000000000000e+00  0.0000000000000000e+00  0.0000000000000000e+00  0.0000000000000000e+00  0.0000000000000000e+00  0.0000000000000000e+00  0.0000000000000000e+00  0.0000000000000000e+00  0.0000000000000000e+00  0.0000000000000000e+00  </DataArray> 
</PointData> 
</Piece>
</UnstructuredGrid>
</VTKFile>