<?xml version="1.0"?>
<VTKFile type="UnstructuredGrid"  version="0.1"  >
<UnstructuredGrid>
<Piece  NumberOfPoints="825" NumberOfCells="1536">
<Points>
<DataArray  type="Float64"  NumberOfComponents="3"  format="ascii">-1.044467617430453e-21 0.5 0  0.06249999999904086 0.5000000001364294 0  0.06249999892710018 0.5625000010976916 0  -2.454008071168815e-09 0.562500000066963 0  0.1249999999135156 0.5000000000590401 0  0.1249999993699165 0.5625000009721101 0  0.1874999996055851 0.49999999968788 0  0.1874999992649815 0.5625000004311964 0  0.2499999991339628 0.499999999269353 0  0.2499999988282958 0.5624999997586143 0  0.3124999984418516 0.4999999987055216 0  0.3124999981212979 0.5624999988679077 0  0.3749999969848112 0.4999999973628541 0  0.3749999970666825 0.5624999977366665 0  0.4374999954805125 0.4999999962464676 0  0.4374999959076332 0.5624999967272404 0  0.4999999940729339 0.4999999952783127 0  0.4999999948368859 0.5624999957399587 0  0.5624999925899746 0.4999999938154424 0  0.5624999939338947 0.5624999949047502 0  0.6249999924926156 0.4999999939314788 0  0.6249999935279534 0.5624999948241879 0  0.6874999931389808 0.499999994688538 0  0.6874999936159836 0.5624999949244796 0  0.7499999929680966 0.4999999938046213 0  0.7499999937615812 0.5624999947504693 0  0.8124999936298994 0.4999999942574598 0  0.8124999941576032 0.5624999949586776 0  0.8749999946986717 0.4999999948881295 0  0.8749999947560158 0.5624999950552051 0  0.9374999947505728 0.4999999938236708 0  0.9374999952311232 0.5624999948280157 0  0.9999999956411286 0.4999999942793222 0  0.9999999958326206 0.562499994987801 0  1.062499996742563 0.4999999947975603 0  1.062499996509531 0.5624999950095719 0  1.124999996708579 0.4999999936904295 0  1.124999996975027 0.5624999947154955 0  1.187499997424488 0.4999999940067565 0  1.187499997480589 0.562499994813295 0  1.249999998395402 0.4999999945701991 0  1.24999999800622 0.5624999948474986 0  1.312499998192825 0.4999999935866231 0  1.312499998271383 0.5624999946265795 0  1.374999998614407 0.4999999939688333 0  1.374999998509824 0.5624999948072055 0  1.437499999122192 0.49999999450833 0  1.437499998703369 0.5624999950051369 0  1.499999998744818 0.4999999940882968 0  1.499999998624681 0.5624999952289684 0  1.562499998884738 0.4999999952918091 0  1.562499998543952 0.5624999960455165 0  1.624999999262787 0.4999999968437495 0  1.62499999853604 0.562499997001052 0  1.68749999931144 0.499999997557098 0  1.687499998441128 0.5624999978876517 0  1.749999999701008 0.4999999987122297 0  1.749999998380129 0.5624999989320318 0  1.812500000116513 0.4999999995758856 0  1.812499998328519 0.5624999998969077 0  1.875000000217624 0.4999999998566115 0  1.874999998156312 0.5625000008713092 0  1.937500000251674 0.5000000001515805 0  1.937499998159835 0.5625000021758378 0  2 0.5 0  2.000000000506571 0.5625000034361723 0  0.06249999811440225 0.6250000012223619 0  -2.829305950836639e-09 0.6250000005204026 0  0.1249999986405455 0.6250000011945223 0  0.1874999987198936 0.6250000007239936 0  0.2499999984469363 0.6250000000241709 0  0.312499997904059 0.6249999991568355 0  0.3749999971336262 0.6249999981938464 0  0.4374999962563597 0.6249999972627699 0  0.4999999954140001 0.6249999964196844 0  0.5624999946962693 0.6249999957838017 0  0.6249999942417113 0.6249999954919341 0  0.6874999941160087 0.6249999953980003 0  0.749999994198531 0.624999995355403 0  0.8124999944541077 0.6249999953985484 0  0.8749999948662556 0.6249999954310673 0  0.9374999953211903 0.6249999954090864 0  0.9999999958146779 0.6249999954268244 0  1.062499996349384 0.624999995412576 0  1.124999996830417 0.624999995339844 0  1.187499997264045 0.6249999953212473 0  1.249999997665264 0.6249999953106287 0  1.312499997952553 0.6249999952926174 0  1.374999998133685 0.6249999953811104 0  1.437499998221489 0.6249999955707121 0  1.499999998164909 0.6249999959075204 0  1.562499998022409 0.6249999964975759 0  1.624999997857338 0.6249999972674548 0  1.687499997654113 0.6249999981488146 0  1.749999997443016 0.624999999153166 0  1.812499997258023 0.6250000002538754 0  1.874999997164448 0.6250000014871356 0  1.937499997504764 0.6250000028036758 0  1.999999998701232 0.6250000032876983 0  0.06249999766320965 0.687500000999146 0  -2.858198123819596e-09 0.6875000005345924 0  0.1249999980591191 0.6875000010172947 0  0.1874999981861948 0.6875000006600356 0  0.2499999980379304 0.6875000000572882 0  0.3124999976564115 0.6874999993036378 0  0.3749999970970834 0.6874999984823211 0  0.4374999964427234 0.6874999976787971 0  0.4999999957869799 0.6874999969656411 0  0.5624999952139564 0.6874999964177384 0  0.6249999948092413 0.6874999960796943 0  0.6874999946193793 0.6874999959077879 0  0.7499999946209043 0.6874999958341741 0  0.8124999947824368 0.6874999958205517 0  0.8749999950711769 0.6874999958247247 0  0.9374999954351801 0.6874999958233208 0  0.9999999958445341 0.6874999958214828 0  1.062499996276054 0.6874999958069249 0  1.124999996688835 0.6874999957776466 0  1.187499997062396 0.6874999957582121 0  1.24999999738315 0.687499995755243 0  1.312499997619993 0.6874999957817558 0  1.37499999775906 0.6874999958766035 0  1.43749999779546 0.6874999960708374 0  1.499999997722401 0.6874999964015974 0  1.562499997564262 0.6874999969040605 0  1.624999997356353 0.6874999975701415 0  1.687499997122313 0.6874999983767504 0  1.749999996898971 0.6874999993094635 0  1.812499996743353 0.6875000003431847 0  1.874999996753086 0.6875000014179347 0  1.93749999706634 0.6875000023253965 0  1.999999997564955 0.6875000026628882 0  0.06249999740094912 0.7500000006391844 0  -2.861822002105217e-09 0.7500000003282409 0  0.1249999976470642 0.7500000006690809 0  0.1874999977513781 0.7500000004120022 0  0.2499999976691226 0.7499999999361004 0  0.3124999974087885 0.7499999993207869 0  0.3749999970079425 0.7499999986421141 0  0.4374999965239612 0.7499999979712348 0  0.4999999960236193 0.7499999973707252 0  0.5624999955734292 0.7499999968912688 0  0.6249999952333777 0.7499999965567878 0  0.6874999950401322 0.7499999963523034 0  0.7499999949972097 0.7499999962423761 0  0.8124999950890538 0.7499999961922569 0  0.8749999952900231 0.7499999961718895 0  0.937499995567628 0.7499999961617787 0  0.9999999958926065 0.7499999961532932 0  1.062499996237971 0.749999996140989 0  1.124999996575291 0.7499999961261862 0  1.187499996881397 0.7499999961187666 0  1.249999997136721 0.7499999961303069 0  1.312499997321225 0.7499999961774279 0  1.374999997420983 0.7499999962849061 0  1.437499997429627 0.7499999964800087 0  1.499999997349178 0.7499999967900074 0  1.562499997196248 0.7499999972347371 0  1.624999996997737 0.7499999978163825 0  1.687499996785203 0.7499999985224791 0  1.749999996599174 0.7499999993287967 0  1.812499996491744 0.7500000001887427 0  1.874999996519496 0.7500000010102653 0  1.937499996695142 0.750000001635678 0  1.999999996875474 0.7500000019374513 0  0.06249999721880731 0.8125000002518487 0  -2.901349427717246e-09 0.8125000000395712 0  0.1249999973536151 0.8125000002808725 0  0.1874999974174443 0.8125000000990338 0  0.2499999973635058 0.812499999738253 0  0.312499997183553 0.8124999992545441 0  0.3749999968971531 0.8124999987092448 0  0.4374999965420956 0.8124999981608585 0  0.499999996165842 0.8124999976600464 0  0.5624999958178687 0.8124999972445814 0  0.6249999955422121 0.8124999969326827 0  0.6874999953686027 0.8124999967203488 0  0.7499999953076284 0.8124999965885338 0  0.8124999953538965 0.8124999965133344 0  0.874999995491176 0.8124999964725828 0  0.9374999956970079 0.8124999964498263 0  0.999999995947274 0.8124999964351026 0  1.062499996217841 0.8124999964237436 0  1.124999996485057 0.8124999964166756 0  1.187499996727556 0.8124999964202794 0  1.249999996926604 0.812499996445039 0  1.312499997066152 0.8124999965057199 0  1.374999997134954 0.8124999966212164 0  1.437499997128506 0.8124999968122572 0  1.499999997050782 0.8124999970980308 0  1.562499996915829 0.8124999974910917 0  1.624999996746522 0.8124999979923642 0  1.687499996572266 0.8124999985889122 0  1.74999999642761 0.8124999992514103 0  1.812499996347838 0.8124999999281677 0  1.874999996354881 0.8125000005399613 0  1.937499996428008 0.8125000009951592 0  1.999999996481941 0.8125000012577904 0  0.06249999706797326 0.8749999998903447 0  -2.979996390807044e-09 0.8749999997398684 0  0.1249999971327528 0.8749999999157161 0  0.1874999971617765 0.8749999997874356 0  0.2499999971184513 0.8749999995188286 0  0.3124999969897806 0.8749999991466604 0  0.3749999967839275 0.8749999987167948 0  0.4374999965245208 0.8749999982751676 0  0.4999999962443316 0.8749999978619001 0  0.5624999959790645 0.8749999975067319 0  0.6249999957612549 0.8749999972254793 0  0.6874999956146071 0.8749999970194247 0  0.7499999955507264 0.8749999968788559 0  0.8124999955694493 0.8749999967886419 0  0.8749999956613342 0.8749999967331578 0  0.9374999958108247 0.8749999966995434 0  0.9999999959992014 0.8749999966791313 0  1.062499996206548 0.8749999966677334 0  1.124999996413079 0.8749999966657381 0  1.187499996600367 0.8749999966778864 0  1.24999999675222 0.8749999967127456 0  1.312499996855556 0.8749999967822402 0  1.374999996901746 0.8749999969007726 0  1.437499996888096 0.8749999970833815 0  1.499999996819061 0.874999997342928 0  1.562499996706782 0.874999997686484 0  1.624999996570252 0.8749999981117522 0  1.687499996433294 0.8749999986042629 0  1.74999999632134 0.8749999991349974 0  1.812499996255438 0.8749999996589605 0  1.874999996242107 0.8750000001189784 0  1.937499996262624 0.8750000004632413 0  1.999999996277757 0.875000000679409 0  0.062499996928442 0.9374999995767533 0  -3.087628477639652e-09 0.9374999994637871 0  0.1249999969544711 0.9374999995993479 0  0.1874999969606831 0.9374999995088714 0  0.2499999969221184 0.937499999310181 0  0.3124999968268811 0.9374999990268117 0  0.3749999966774062 0.9374999986916389 0  0.437499996487979 0.9374999983394298 0  0.4999999962806554 0.937499998001414 0  0.5624999960806667 0.9374999977014086 0  0.6249999959118356 0.937499997453461 0  0.6874999957925976 0.937
[...]
<PointData  Vectors="u"> 
<DataArray  type="Float64"  Name="u"  NumberOfComponents="3" format="ascii">-1.3688106872386678e-25 7.9893290280790014e-25 0.0000000000000000e+00  4.9391908904931736e-10 -6.5046515662748554e-09 0.0000000000000000e+00  1.6500950994241206e-06 2.4996984071588510e-07 0.0000000000000000e+00  0.0000000000000000e+00 0.0000000000000000e+00 0.0000000000000000e+00  1.8690499909428027e-09 -1.1886153277255905e-08 0.0000000000000000e+00  1.8153400622638117e-06 3.5784312168690034e-07 0.0000000000000000e+00  3.2828144526227382e-09 -1.8720502618536661e-08 0.0000000000000000e+00  1.5792683458903844e-06 3.5397422237629127e-07 0.0000000000000000e+00  5.1222481654305688e-09 -2.4975566608681561e-08 0.0000000000000000e+00  1.3027485815521841e-06 3.1002903181627285e-07 0.0000000000000000e+00  9.1802432821995413e-09 -2.6883528148129118e-08 0.0000000000000000e+00  1.0490024798831934e-06 2.5652329884848807e-07 0.0000000000000000e+00  1.4658075804632444e-08 -2.6182227653930054e-08 0.0000000000000000e+00  8.3204292786569224e-07 2.0536116033196103e-07 0.0000000000000000e+00  2.1224602447688926e-08 -2.3219047523050292e-08 0.0000000000000000e+00  6.5375728128165247e-07 1.6079242535406216e-07 0.0000000000000000e+00  2.8140173432738735e-08 -1.9116222923917858e-08 0.0000000000000000e+00  5.1122347508027437e-07 1.2368204077993774e-07 0.0000000000000000e+00  3.3573457592138733e-08 -1.7009003739706575e-08 0.0000000000000000e+00  3.9975259382791928e-07 9.3516006637142111e-08 0.0000000000000000e+00  3.9522675467790987e-08 -1.3032542771007849e-08 0.0000000000000000e+00  3.1457910958754070e-07 6.9557559632407367e-08 0.0000000000000000e+00  4.4428672348240029e-08 -9.5194910764942105e-09 0.0000000000000000e+00  2.5088050761289750e-07 5.0727551584256608e-08 0.0000000000000000e+00  4.7231078561500278e-08 -8.5296423725391863e-09 0.0000000000000000e+00  2.0433457515206441e-07 3.5929151394616406e-08 0.0000000000000000e+00  5.0859481585288143e-08 -5.0431828098942469e-09 0.0000000000000000e+00  1.7177973606070329e-07 2.4657839019826854e-08 0.0000000000000000e+00  5.3386093258310895e-08 -2.0093927049755698e-09 0.0000000000000000e+00  1.5059510834697008e-07 1.5958985652100133e-08 0.0000000000000000e+00  5.4162409887784940e-08 -1.2396347161491720e-09 0.0000000000000000e+00  1.3874887480745831e-07 8.7676414543909263e-09 0.0000000000000000e+00  5.6063458560815198e-08 2.3624008346969931e-09 0.0000000000000000e+00  1.3542562715338140e-07 2.6125032921867473e-09 0.0000000000000000e+00  5.6886237990311922e-08 5.4941705525728055e-09 0.0000000000000000e+00  1.4019374775219003e-07 -3.4618832240240603e-09 0.0000000000000000e+00  5.5920793377747536e-08 6.3065258886198055e-09 0.0000000000000000e+00  1.5324261766230748e-07 -1.0536379190994937e-08 0.0000000000000000e+00  5.6039167826094624e-08 9.8731376203074488e-09 0.0000000000000000e+00  1.7599731224274194e-07 -1.9131561857835656e-08 0.0000000000000000e+00  5.5042700575771833e-08 1.2888292786417082e-08 0.0000000000000000e+00  2.1028215203665051e-07 -3.0310989323615250e-08 0.0000000000000000e+00  5.2251660119851980e-08 1.3510035613575474e-08 0.0000000000000000e+00  2.5855919463444430e-07 -4.5318014429469944e-08 0.0000000000000000e+00  5.0567634972926100e-08 1.6816878090621847e-08 0.0000000000000000e+00  3.2453999348974555e-07 -6.4877371841347253e-08 0.0000000000000000e+00  4.7796197296102383e-08 1.9494742245476068e-08 0.0000000000000000e+00  4.1231224163696866e-07 -9.0276410612807597e-08 0.0000000000000000e+00  4.3261986548579144e-08 1.9651877321857836e-08 0.0000000000000000e+00  5.2648682199239302e-07 -1.2294372268873288e-07 0.0000000000000000e+00  3.9878768378656009e-08 2.1863532039613431e-08 0.0000000000000000e+00  6.7264195852197503e-07 -1.6353965318524532e-07 0.0000000000000000e+00  3.5467615000524171e-08 2.2453319612943400e-08 0.0000000000000000e+00  8.5615853958195166e-07 -2.1243192157525680e-07 0.0000000000000000e+00  2.9380528564593052e-08 1.9652045260107186e-08 0.0000000000000000e+00  1.0817593032707103e-06 -2.6806586041221341e-07 0.0000000000000000e+00  2.4567533936305798e-08 1.8472673411876528e-08 0.0000000000000000e+00  1.3519181618339279e-06 -3.2369372011488028e-07 0.0000000000000000e+00  1.8907457100002158e-08 1.5717655248710457e-08 0.0000000000000000e+00  1.6563632912012814e-06 -3.6281629274686268e-07 0.0000000000000000e+00  1.1779296920435142e-08 9.6820963450196534e-09 0.0000000000000000e+00  1.9250664619071818e-06 -3.4734765892803140e-07 0.0000000000000000e+00  5.9146519623165128e-09 5.0678763749863806e-09 0.0000000000000000e+00  1.8073689887666665e-06 -2.0429288499625283e-07 0.0000000000000000e+00  1.6496177852346386e-25 1.8667508814290434e-25 0.0000000000000000e+00  0.0000000000000000e+00 0.0000000000000000e+00 0.0000000000000000e+00  2.4789770153233655e-06 4.1461115275596852e-07 0.0000000000000000e+00  0.0000000000000000e+00 0.0000000000000000e+00 0.0000000000000000e+00  2.7451940258404932e-06 6.4488347636522922e-07 0.0000000000000000e+00  2.5653890756540237e-06 6.8254578481661259e-07 0.0000000000000000e+00  2.2840606886048188e-06 6.3000712738218817e-07 0.0000000000000000e+00  1.9970189156133791e-06 5.4336499826092642e-07 0.0000000000000000e+00  1.7355550488552790e-06 4.4992519906821808e-07 0.0000000000000000e+00  1.5101403721609863e-06 3.6208188113309520e-07 0.0000000000000000e+00  1.3228993901880919e-06 2.8489215993444701e-07 0.0000000000000000e+00  1.1719325489629901e-06 2.1973436239969379e-07 0.0000000000000000e+00  1.0533802010352467e-06 1.6612596402085468e-07 0.0000000000000000e+00  9.6267934175246514e-07 1.2279708283232408e-07 0.0000000000000000e+00  8.9526472813507802e-07 8.8131444033648363e-08 0.0000000000000000e+00  8.4712442474979270e-07 6.0469772887836329e-08 0.0000000000000000e+00  8.1505223582744530e-07 3.8115069310538120e-08 0.0000000000000000e+00  7.9665254790545424e-07 1.9266468097713260e-08 0.0000000000000000e+00  7.9047806868441390e-07 2.1791152545035802e-09 0.0000000000000000e+00  7.9604964500310085e-07 -1.4861603417632258e-08 0.0000000000000000e+00  8.1378833026828060e-07 -3.3660464164506531e-08 0.0000000000000000e+00  8.4509462216174141e-07 -5.5996240949948752e-08 0.0000000000000000e+00  8.9230572037958978e-07 -8.3658964068500160e-08 0.0000000000000000e+00  9.5854152262811905e-07 -1.1854529660195946e-07 0.0000000000000000e+00  1.0476866847448392e-06 -1.6246987646669361e-07 0.0000000000000000e+00  1.1641758618193413e-06 -2.1707117379831391e-07 0.0000000000000000e+00  1.3125900700735323e-06 -2.8365239925421004e-07 0.0000000000000000e+00  1.4972667082600421e-06 -3.6247578003531015e-07 0.0000000000000000e+00  1.7215523550453093e-06 -4.5165617354679772e-07 0.0000000000000000e+00  1.9865603873197619e-06 -5.4509971806722510e-07 0.0000000000000000e+00  2.2883940893759607e-06 -6.2830060679295334e-07 0.0000000000000000e+00  2.6061586463234152e-06 -6.7102192906151507e-07 0.0000000000000000e+00  2.8421346974434284e-06 -6.1602638750395508e-07 0.0000000000000000e+00  2.5394550829276636e-06 -3.7581136934235004e-07 0.0000000000000000e+00  0.0000000000000000e+00 0.0000000000000000e+00 0.0000000000000000e+00  2.9639675273645549e-06 4.9854173101302127e-07 0.0000000000000000e+00  0.0000000000000000e+00 0.0000000000000000e+00 0.0000000000000000e+00  3.3968767921192590e-06 8.2333097816073260e-07 0.0000000000000000e+00  3.2928430526425608e-06 9.2172768982284281e-07 0.0000000000000000e+00  3.0784773047620447e-06 8.8991336814199093e-07 0.0000000000000000e+00  2.8444851808607562e-06 7.9552974406498908e-07 0.0000000000000000e+00  2.6196693473825666e-06 6.7792637364769503e-07 0.0000000000000000e+00  2.4174442351478691e-06 5.5842225991472050e-07 0.0000000000000000e+00  2.2437453515660570e-06 4.4778676243756337e-07 0.0000000000000000e+00  2.0999450690740933e-06 3.5074775911167109e-07 0.0000000000000000e+00  1.9846252887921756e-06 2.6855646210223348e-07 0.0000000000000000e+00  1.8949294716248718e-06 2.0056508282126920e-07 0.0000000000000000e+00  1.8274267521496268e-06 1.4512568125049584e-07 0.0000000000000000e+00  1.7787234048947630e-06 1.0006237414175129e-07 0.0000000000000000e+00  1.7459061780226112e-06 6.2939989287104418e-08 0.0000000000000000e+00  1.7267593514468892e-06 3.1175099847320900e-08 0.0000000000000000e+00  1.7198836812714855e-06 2.0950602791790683e-09 0.0000000000000000e+00  1.7247880200519248e-06 -2.6973704885873400e-08 0.0000000000000000e+00  1.7418829756722038e-06 -5.8708614604204274e-08 0.0000000000000000e+00  1.7724631311591651e-06 -9.5794498166300861e-08 0.0000000000000000e+00  1.8186505482897522e-06 -1.4084131058215944e-07 0.0000000000000000e+00  1.8832447436344542e-06 -1.9632348870698336e-07 0.0000000000000000e+00  1.9694958087882099e-06 -2.6443742026215941e-07 0.0000000000000000e+00  2.0807983579496263e-06 -3.4675348399890689e-07 0.0000000000000000e+00  2.2202230556847002e-06 -4.4370695809167731e-07 0.0000000000000000e+00  2.3899205900357047e-06 -5.5368930723284645e-07 0.0000000000000000e+00  2.5904031618945186e-06 -6.7140285458160355e-07 0.0000000000000000e+00  2.8196429999912580e-06 -7.8521617298847879e-07 0.0000000000000000e+00  3.0709274218491153e-06 -8.7291541252091006e-07 0.0000000000000000e+00  3.3216748944147858e-06 -8.9544710758678867e-07 0.0000000000000000e+00  3.4699019810368429e-06 -7.9029079030355186e-07 0.0000000000000000e+00  3.0159230928021801e-06 -4.7724724128920385e-07 0.0000000000000000e+00  0.0000000000000000e+00 0.0000000000000000e+00 0.0000000000000000e+00  3.3705172497108173e-06 5.3724477271632783e-07 0.0000000000000000e+00  0.0000000000000000e+00 0.0000000000000000e+00 0.0000000000000000e+00  3.9295396224050708e-06 9.1351049361866351e-07 0.0000000000000000e+00  3.9039173097478945e-06 1.0630927123009593e-06 0.0000000000000000e+00  3.7718064735564419e-06 1.0622192183152257e-06 0.0000000000000000e+00  3.6186295902040015e-06 9.7699304156549951e-07 0.0000000000000000e+00  3.4660388084207125e-06 8.5205951876931150e-07 0.0000000000000000e+00  3.3241856118561194e-06 7.1506019866431786e-07 0.0000000000000000e+00  3.1990300550759628e-06 5.8197556462739866e-07 0.0000000000000000e+00  3.0933550101246180e-06 4.6120619438438889e-07 0.0000000000000000e+00  3.0074920251188016e-06 3.5633424115961451e-07 0.0000000000000000e+00  2.9402148614225367e-06 2.6796006870814893e-07 0.0000000000000000e+00  2.8894348963710273e-06 1.9488933071369387e-07 0.0000000000000000e+00  2.8527616088648745e-06 1.3486078392451908e-07 0.0000000000000000e+00  2.8279717043055448e-06 8.4997074474960061e-08 0.0000000000000000e+00  2.8133061737654731e-06 4.2071831540847799e-08 0.0000000000000000e+00  2.8076312677917891e-06 2.6639286086871954e-09 0.0000000000000000e+00  2.8105318730688040e-06 -3.6722006599793200e-08 0.0000000000000000e+00  2.8223422990349743e-06 -7.9573840926947035e-08 0.0000000000000000e+00  2.8441058080021696e-06 -1.2930846638149827e-07 0.0000000000000000e+00  2.8775004076935894e-06 -1.8914803726535625e-07 0.0000000000000000e+00  2.9246600004833626e-06 -2.6194425116311561e-07 0.0000000000000000e+00  2.9879203961364740e-06 -3.4989535596237222e-07 0.0000000000000000e+00  3.0694656531123587e-06 -4.5405524658967892e-07 0.0000000000000000e+00  3.1709100176813739e-06 -5.7357955255112680e-07 0.0000000000000000e+00  3.2928503415854455e-06 -7.0456146762561809e-07 0.0000000000000000e+00  3.4344776338404430e-06 -8.3822736596830110e-07 0.0000000000000000e+00  3.5934206063223767e-06 -9.5832241464945827e-07 0.0000000000000000e+00  3.7647504700238453e-06 -1.0375799429888048e-06 0.0000000000000000e+00  3.9306863642570749e-06 -1.0336208388626407e-06 0.0000000000000000e+00  3.9925763963846775e-06 -8.8641614728292819e-07 0.0000000000000000e+00  3.4150054566981087e-06 -5.2750334151068133e-07 0.0000000000000000e+00  0.0000000000000000e+00 0.0000000000000000e+00 0.0000000000000000e+00  3.7360538709452492e-06 5.4081159203908241e-07 0.0000000000000000e+00  0.0000000000000000e+00 0.0000000000000000e+00 0.0000000000000000e+00  4.4016289896178999e-06 9.3480476643866858e-07 0.0000000000000000e+00  4.4488777856406348e-06 1.1143049700213072e-06 0.0000000000000000e+00  4.3989767541918241e-06 1.1395020268315636e-06 0.0000000000000000e+00  4.3351796616344881e-06 1.0692795889268028e-06 0.0000000000000000e+00  4.2702131007183177e-06 9.4793447872745718e-07 0.0000000000000000e+00  4.2083513304863007e-06 8.0577786932913684e-07 0.0000000000000000e+00  4.1528549523491941e-06 6.6210486631292441e-07 0.0000000000000000e+00  4.1058714141241401e-06 5.2820179460255650e-07 0.0000000000000000e+00  4.0681882803197661e-06 4.0978130798494916e-07 0.0000000000000000e+00  4.0394906126841539e-06 3.0879847391512903e-07 0.0000000000000000e+00  4.0186935865095441e-06 2.2474588958777076e-07 0.0000000000000000e+00  4.0043147467565172e-06 1.5554168443099588e-07 0.0000000000000000e+00  3.9948609623109451e-06 9.8125106002272299e-08 0.0000000000000000e+00  3.9891008473039534e-06 4.8848556369849843e-08 0.0000000000000000e+00  3.9862223774735035e-06 3.7356569136977322e-09 0.0000000000000000e+00  3.9859243985059150e-06 -4.1332468271146562e-08 0.0000000000000000e+00  3.9884438674333300e-06 -9.0468656657677803e-08 0.0000000000000000e+00  3.9945349304819794e-06 -1.4763286416204340e-07 0.0000000000000000e+00  4.0053724614609559e-06 -2.1644671621642823e-07 0.0000000000000000e+00  4.0224194222367501e-06 -2.9991947654527487e-07 0.0000000000000000e+00  4.0471799614580471e-06 -4.0004727914136960e-07 0.0000000000000000e+00  4.0809244158087847e-06 -5.1720333619732133e-07 0.0000000000000000e+00  4.1244509564791585e-06 -6.4925091380212855e-07 0.0000000000000000e+00  4.1779242898470403e-06 -7.9029518033902426e-07 0.0000000000000000e+00  4.2409711478179697e-06 -9.2896610780646674e-07 0.0000000000000000e+00  4.3133000003299700e-06 -1.0462128128529632e-06 0.0000000000000000e+00  4.3946068762757425e-06 -1.1127868016820301e-06 0.0000000000000000e+00  4.4742999015587309e-06 -1.0870282285174203e-06 0.0000000000000000e+00  4.4575730768377110e-06 -9.1469011731189378e-07 0.0000000000000000e+00  3.7729163464285052e-06 -5.3837348679890916e-07 0.0000000000000000e+00  0.0000000000000000e+00 0.0000000000000000e+00 0.0000000000000000e+00  4.0663818719192778e-06 5.1343703994245346e-07 0.0000000000000000e+00  0.0000000000000000e+00 0.0000000000000000e+00 0.0000000000000000e+00  4.8285235342589266e-06 8.9643007243542558e-07 0.0000000000000000e+00  4.9428230224439531e-06 1.0833106834093958e-06 0.0000000000000000e+00  4.9719497465665300e-06 1.1229559599427412e-06 0.0000000000000000e+00  4.9979366790971121e-06 1.0660725770606236e-06 0.0000000000000000e+00  5.0255351179533845e-06 9.5350990631888048e-07 0.0000000000000000e+00  5.0524024991060646e-06 8.1523322394150472e-07 0.0000000000000000e+00  5.0776862633629760e-06 6.7166610214939959e-07 0.0000000000000000e+00  5.1014754935409416e-06 5.3563278902808152e-07 0.0000000000000000e+00  5.1238543742723000e-06 4.1424323981316987e-07 0.0000000000000000e+00  5.1445921550384149e-06 3.1048528647611385e-07 0.0000000000000000e+00  5.1630755111738929e-06 2.2447356297874123e-07 0.0000000000000000e+00  5.1784237258633932e-06 1.5438242075907210e-07 0.0000000000000000e+00  5.1897178223933978e-06 9.7119784474268540e-08 0.0000000000000000e+00  5.1961854899640011e-06 4.8802553100996883e-08 0.0000000000000000e+00  5.1973109867598072e-06 5.0924523185595519e-09 0.0000000000000000e+00  5.1929000613605421e-06 -3.8552809971712772e-08 0.0000000000000000e+00  5.1831091648074936e-06 -8.6668245614730410e-08 0.0000000000000000e+00  5.1684180315781265e-06 -1.4357371170724336e-07 0.0000000000000000e+00  5.1495869349726480e-06 -2.1311773982241168e-07 0.0000000000000000e+00  5.1275396244588981e-06 -2.9834198530334586e-07 0.0000000000000000e+00  5.1032361497013410e-06 -4.0099860881856055e-07 0.0000000000000000e+00  5.0775173368719690e-06 -5.2088044036906565e-07 0.0000000000000000e+00  5.0510912929259315e-06 -6.5491250625323926e-07 0.0000000000000000e+00  5.0247390619848652e-06 -7.9595596922139094e-07 0.0000000000000000e+00  4.9998611628789980e-06 -9.3133037619133273e-07 0.0000000000000000e+00  4.9796564462602701e-06 -1.0411429707129244e-06 0.0000000000000000e+00  4.9695136637472276e-06 -1.0966771574893213e-06 0.0000000000000000e+00  4.9661327920421214e-06 -1.0594166815301211e-06 0.0000000000000000e+00  4.8774223161912026e-06 -8.8190872788486247e-07 0.0000000000000000e+00  4.0968189625781824e-06 -5.1605712895813099e-07 0.0000000000000000e+00  0.0000000000000000e+00 0.0000000000000000e+00 0.0000000000000000e+00  4.3613216100818102e-06 4.5765173005545165e-07 0.0000000000000000e+00  0.0000000000000000e+00 0.0000000000000000e+00 0.0000000000000000e+00  5.2114921681943995e-06 8.0367061755210344e-07 0.0000000000000000e+00  5.3877060183928968e-06 9.7666441660232681e-07 0.0000000000000000e+00  5.4908932615072951e-06 1.0171040924537623e-06 0.0000000000000000e+00  5.6028538114915387e-06 9.6805433108322006e-07 0.0000000000000000e+00  5.7215575678494770e-06 8.6551531458285870e-07 0.0000000000000000e+00  5.8383265532932984e-06 7.3708651280342482e-07 0.0000000000000000e+00  5.9477814921387773e-06 6.0245309535236047e-07 0.0000000000000000e+00  6.0472103493934608e-06 4.7455341687251998e-07 0.0000000000000000e+00  6.1352144604534587e-06 3.6093578588596799e-07 0.0000000000000000e+00  6.2109788900395105e-06 2.6504602725489598e-07 0.0000000000000000e+00  6.2738558631621685e-06 1.8733324172246177e-07 0.0000000000000000e+00  6.3232121148534090e-06 1.2613742271971152e-07 0.0000000000000000e+00  6.3584749833593111e-06 7.8370417288863047e-08 0.0000000000000000e+00  6.3791947470868348e-06 4.0024867991778732e-08 0.0000000000000000e+00  6.3850797438886722e-06 6.5529291220137475e-09 0.0000000000000000e+00  6.3760235082033038e-06 -2.6840297039543779e-08 0.0000000000000000e+00  6.3521151013656575e-06 -6.4944302384612369e-08 0.0000000000000000e+00  6.3136410055803171e-06 -1.1228845800499498e-07 0.0000000000000000e+00  6.2610546084775899e-06 -1.7285247776749065e-07 0.0000000000000000e+00  6.1949763155763929e-06 -2.4968328652746018e-07 0.0000000000000000e+00  6.1161329743397620e-06 -3.4439620908469954e-07 0.0000000000000000e+00  6.0253972311234379e-06 -4.5650233924148926e-07 0.0000000000000000e+00  5.9240165114767803e-06 -5.8254770772728460e-07 0.0000000000000000e+00  5.8141061119178091e-06 -7.1507217297161254e-07 0.0000000000000000e+00  5.6995707544810673e-06 -8.4141560297410298e-07 0.0000000000000000e+00  5.5876476894702839e-06 -9.4251857834262422e-07 0.0000000000000000e+00  5.4894102069011612e-06 -9.9198006031838325e-07 0.0000000000000000e+00  5.4080477109484958e-06 -9.5575599026849805e-07 0.0000000000000000e+00  5.2532101517151372e-06 -7.9327138276308049e-07 0.0000000000000000e+00  4.3862748416010558e-06 -4.6413098550184964e-07 0.0000000000000000e+00  0.0000000000000000e+00 0.0000000000000000e+00 0.0000000000000000e+00  4.6181038980945376e-06 3.7571120483790595e-07 0.0000000000000000e+00  0.0000000000000000e+00 0.0000000000000000e+00 0.0000000000000000e+00  5.5469829172449757e-06 6.6109789722468481e-07 0.0000000000000000e+00  5.7794043431395447e-06 8.0081618178560989e-07 0.0000000000000000e+00  5.9500797313448630e-06 8.2856587435561045e-07 0.0000000000000000e+00  6.1411403031603126e-06 7.8039503832638866e-07 0.0000000000000000e+00  6.3449012896154337e-06 6.8687391593468283e-07 0.0000000000000000e+00  6.5470725690099521e-06 5.7198083835123157e-07 0.0000000000000000e+00  6.7379258358686841e-06 4.5325439199851373e-07 0.0000000000000000e+00  6.9117490848276520e-06 3.4249983910485903e-07 0.0000000000000000e+00  7.0652848268509909e-06 2.4674058431650556e-07 0.0000000000000000e+00  7.1967247358822014e-06 1.6921691102052853e-07 0.0000000000000000e+00  7.3050150810269893e-06 1.1030633861844074e-07 0.0000000000000000e+00  7.3894736310059740e-06 6.8308643387132671e-08 0.0000000000000000e+00  7.4496552076796667e-06 4.0079587807253722e-08 0.0000000000000000e+00  7.4852866534273704e-06 2.1524571537343912e-08 0.0000000000000000e+00  7.4962172637289421e-06 7.9802602508761964e-09 0.0000000000000000e+00  7.4823972530484179e-06 -5.4794352581031295e-09 0.0000000000000000e+00  7.4438784224199986e-06 -2.3775808196