<?xml version="1.0"?>
<VTKFile type="UnstructuredGrid"  version="0.1"  >
<UnstructuredGrid>
<Piece  NumberOfPoints="759" NumberOfCells="1408">
<Points>
<DataArray  type="Float64"  NumberOfComponents="3"  format="ascii">0 0.46875 0  0.03125 0.46875 0  0.03125 0.515625 0  0 0.515625 0  0.0625 0.46875 0  0.0625 0.515625 0  0.09375 0.46875 0  0.09375 0.515625 0  0.125 0.46875 0  0.125 0.515625 0  0.15625 0.46875 0  0.15625 0.515625 0  0.1875 0.46875 0  0.1875 0.515625 0  0.21875 0.46875 0  0.21875 0.515625 0  0.25 0.46875 0  0.25 0.515625 0  0.28125 0.46875 0  0.28125 0.515625 0  0.3125 0.46875 0  0.3125 0.515625 0  0.34375 0.46875 0  0.34375 0.515625 0  0.375 0.46875 0  0.375 0.515625 0  0.40625 0.46875 0  0.40625 0.515625 0  0.4375 0.46875 0  0.4375 0.515625 0  0.46875 0.46875 0  0.46875 0.515625 0  0.5 0.46875 0  0.5 0.515625 0  0.53125 0.46875 0  0.53125 0.515625 0  0.5625 0.46875 0  0.5625 0.515625 0  0.59375 0.46875 0  0.59375 0.515625 0  0.625 0.46875 0  0.625 0.515625 0  0.65625 0.46875 0  0.65625 0.515625 0  0.6875 0.46875 0  0.6875 0.515625 0  0.71875 0.46875 0  0.71875 0.515625 0  0.75 0.46875 0  0.75 0.515625 0  0.78125 0.46875 0  0.78125 0.515625 0  0.8125 0.46875 0  0.8125 0.515625 0  0.84375 0.46875 0  0.84375 0.515625 0  0.875 0.46875 0  0.875 0.515625 0  0.90625 0.46875 0  0.90625 0.515625 0  0.9375 0.46875 0  0.9375 0.515625 0  0.96875 0.46875 0  0.96875 0.515625 0  1 0.46875 0  1 0.515625 0  0.03125 0.5625 0  0 0.5625 0  0.0625 0.5625 0  0.09375 0.5625 0  0.125 0.5625 0  0.15625 0.5625 0  0.1875 0.5625 0  0.21875 0.5625 0  0.25 0.5625 0  0.28125 0.5625 0  0.3125 0.5625 0  0.34375 0.5625 0  0.375 0.5625 0  0.40625 0.5625 0  0.4375 0.5625 0  0.46875 0.5625 0  0.5 0.5625 0  0.53125 0.5625 0  0.5625 0.5625 0  0.59375 0.5625 0  0.625 0.5625 0  0.65625 0.5625 0  0.6875 0.5625 0  0.71875 0.5625 0  0.75 0.5625 0  0.78125 0.5625 0  0.8125 0.5625 0  0.84375 0.5625 0  0.875 0.5625 0  0.90625 0.5625 0  0.9375 0.5625 0  0.96875 0.5625 0  1 0.5625 0  0.03125 0.609375 0  0 0.609375 0  0.0625 0.609375 0  0.09375 0.609375 0  0.125 0.609375 0  0.15625 0.609375 0  0.1875 0.609375 0  0.21875 0.609375 0  0.25 0.609375 0  0.28125 0.609375 0  0.3125 0.609375 0  0.34375 0.609375 0  0.375 0.609375 0  0.40625 0.609375 0  0.4375 0.609375 0  0.46875 0.609375 0  0.5 0.609375 0  0.53125 0.609375 0  0.5625 0.609375 0  0.59375 0.609375 0  0.625 0.609375 0  0.65625 0.609375 0  0.6875 0.609375 0  0.71875 0.609375 0  0.75 0.609375 0  0.78125 0.609375 0  0.8125 0.609375 0  0.84375 0.609375 0  0.875 0.609375 0  0.90625 0.609375 0  0.9375 0.609375 0  0.96875 0.609375 0  1 0.609375 0  0.03125 0.65625 0  0 0.65625 0  0.0625 0.65625 0  0.09375 0.65625 0  0.125 0.65625 0  0.15625 0.65625 0  0.1875 0.65625 0  0.21875 0.65625 0  0.25 0.65625 0  0.28125 0.65625 0  0.3125 0.65625 0  0.34375 0.65625 0  0.375 0.65625 0  0.40625 0.65625 0  0.4375 0.65625 0  0.46875 0.65625 0  0.5 0.65625 0  0.53125 0.65625 0  0.5625 0.65625 0  0.59375 0.65625 0  0.625 0.65625 0  0.65625 0.65625 0  0.6875 0.65625 0  0.71875 0.65625 0  0.75 0.65625 0  0.78125 0.65625 0  0.8125 0.65625 0  0.84375 0.65625 0  0.875 0.65625 0  0.90625 0.65625 0  0.9375 0.65625 0  0.96875 0.65625 0  1 0.65625 0  0.03125 0.703125 0  0 0.703125 0  0.0625 0.703125 0  0.09375 0.703125 0  0.125 0.703125 0  0.15625 0.703125 0  0.1875 0.703125 0  0.21875 0.703125 0  0.25 0.703125 0  0.28125 0.703125 0  0.3125 0.703125 0  0.34375 0.703125 0  0.375 0.703125 0  0.40625 0.703125 0  0.4375 0.703125 0  0.46875 0.703125 0  0.5 0.703125 0  0.53125 0.703125 0  0.5625 0.703125 0  0.59375 0.703125 0  0.625 0.703125 0  0.65625 0.703125 0  0.6875 0.703125 0  0.71875 0.703125 0  0.75 0.703125 0  0.78125 0.703125 0  0.8125 0.703125 0  0.84375 0.703125 0  0.875 0.703125 0  0.90625 0.703125 0  0.9375 0.703125 0  0.96875 0.703125 0  1 0.703125 0  0.03125 0.75 0  0 0.75 0  0.0625 0.75 0  0.09375 0.75 0  0.125 0.75 0  0.15625 0.75 0  0.1875 0.75 0  0.21875 0.75 0  0.25 0.75 0  0.28125 0.75 0  0.3125 0.75 0  0.34375 0.75 0  0.375 0.75 0  0.40625 0.75 0  0.4375 0.75 0  0.46875 0.75 0  0.5 0.75 0  0.53125 0.75 0  0.5625 0.75 0  0.59375 0.75 0  0.625 0.75 0  0.65625 0.75 0  0.6875 0.75 0  0.71875 0.75 0  0.75 0.75 0  0.78125 0.75 0  0.8125 0.75 0  0.84375 0.75 0  0.875 0.75 0  0.90625 0.75 0  0.9375 0.75 0  0.96875 0.75 0  1 0.75 0  0.03125 0.796875 0  0 0.796875 0  0.0625 0.796875 0  0.09375 0.796875 0  0.125 0.796875 0  0.15625 0.796875 0  0.1875 0.796875 0  0.21875 0.796875 0  0.25 0.796875 0  0.28125 0.796875 0  0.3125 0.796875 0  0.34375 0.796875 0  0.375 0.796875 0  0.40625 0.796875 0  0.4375 0.796875 0  0.46875 0.796875 0  0.5 0.796875 0  0.53125 0.796875 0  0.5625 0.796875 0  0.59375 0.796875 0  0.625 0.796875 0  0.65625 0.796875 0  0.6875 0.796875 0  0.71875 0.796875 0  0.75 0.796875 0  0.78125 0.796875 0  0.8125 0.796875 0  0.84375 0.796875 0  0.875 0.796875 0  0.90625 0.796875 0  0.9375 0.796875 0  0.96875 0.796875 0  1 0.796875 0  0.03125 0.84375 0  0 0.84375 0  0.0625 0.84375 0  0.09375 0.84375 0  0.125 0.84375 0  0.15625 0.84375 0  0.1875 0.84375 0  0.21875 0.84375 0  0.25 0.84375 0  0.28125 0.84375 0  0.3125 0.84375 0  0.34375 0.84375 0  0.375 0.84375 0  0.40625 0.84375 0  0.4375 0.84375 0  0.46875 0.84375 0  0.5 0.84375 0  0.53125 0.84375 0  0.5625 0.84375 0  0.59375 0.84375 0  0.625 0.84375 0  0.65625 0.84375 0  0.6875 0.84375 0  0.71875 0.84375 0  0.75 0.84375 0  0.78125 0.84375 0  0.8125 0.84375 0  0.84375 0.84375 0  0.875 0.84375 0  0.90625 0.84375 0  0.9375 0.84375 0  0.96875 0.84375 0  1 0.84375 0  0.03125 0.890625 0  0 0.890625 0  0.0625 0.890625 0  0.09375 0.890625 0  0.125 0.890625 0  0.15625 0.890625 0  0.1875 0.890625 0  0.21875 0.890625 0  0.25 0.890625 0  0.28125 0.890625 0  0.3125 0.890625 0  0.34375 0.890625 0  0.375 0.890625 0  0.40625 0.890625 0  0.4375 0.890625 0  0.46875 0.890625 0  0.5 0.890625 0  0.53125 0.890625 0  0.5625 0.890625 0  0.59375 0.890625 0  0.625 0.890625 0  0.65625 0.890625 0  0.6875 0.890625 0  0.71875 0.890625 0  0.75 0.890625 0  0.78125 0.890625 0  0.8125 0.890625 0  0.84375 0.890625 0  0.875 0.890625 0  0.90625 0.890625 0  0.9375 0.890625 0  0.96875 0.890625 0  1 0.890625 0  0.03125 0.9375 0  0 0.9375 0  0.0625 0.9375 0  0.09375 0.9375 0  0.125 0.9375 0  0.15625 0.9375 0  0.1875 0.9375 0  0.21875 0.9375 0  0.25 0.9375 0  0.28125 0.9375 0  0.3125 0.9375 0  0.34375 0.9375 0  0.375 0.9375 0  0.40625 0.9375 0  0.4375 0.9375 0  0.46875 0.9375 0  0.5 0.9375 0  0.53125 0.9375 0  0.5625 0.9375 0  0.59375 0.9375 0  0.625 0.9375 0  0.65625 0.9375 0  0.6875 0.9375 0  0.71875 0.9375 0  0.75 0.9375 0  0.78125 0.9375 0  0.8125 0.9375 0  0.84375 0.9375 0  0.875 0.9375 0  0.90625 0.9375 0  0.9375 0.9375 0  0.96875 0.9375 0  1 0.9375 0  0.03125 0.984375 0  0 0.984375 0  0.0625 0.984375 0  0.09375 0.984375 0  0.125 0.984375 0  0.15625 0.984375 0  0.1875 0.984375 0  0.21875 0.984375 0  0.25 0.984375 0  0.28125 0.984375 0  0.3125 0.984375 0  0.34375 0.984375 0  0.375 0.984375 0  0.40625 0.984375 0  0.4375 0.984375 0  0.46875 0.984375 0  0.5 0.984375 0  0.53125 0.984375 0  0.5625 0.984375 0  0.59375 0.984375 0  0.625 0.984375 0  0.65625 0.984375 0  0.6875 0.984375 0  0.71875 0.984375 0  0.75 0.984375 0  0.78125 0.984375 0  0.8125 0.984375 0  0.84375 0.984375 0  0.875 0.984375 0  0.90625 0.984375 0  0.9375 0.984375 0  0.96875 0.984375 0  1 0.984375 0  0.03125 1.03125 0  0 1.03125 0  0.0625 1.03125 0  0.09375 1.03125 0  0.125 1.03125 0  0.15625 1.03125 0  0.1875 1.03125 0  0.21875 1.03125 0  0.25 1.03125 0  0.28125 1.03125 0  0.3125 1.03125 0  0.34375 1.03125 0  0.375 1.03125 0  0.40625 1.03125 0  0.4375 1.03125 0  0.46875 1.03125 0  0.5 1.03125 0  0.53125 1.03125 0  0.5625 1.03125 0  0.59375 1.03125 0  0.625 1.03125 0  0.65625 1.03125 0  0.6875 1.03125 0  0.71875 1.03125 0  0.75 1.03125 0  0.78125 1.03125 0  0.8125 1.03125 0  0.84375 1.03125 0  0.875 1.03125 0  0.90625 1.03125 0  0.9375 1.03125 0  0.96875 1.03125 0  1 1.03125 0  0.03125 1.078125 0  0 1.078125 0  0.0625 1.078125 0  0.09375 1.078125 0  0.125 1.078125 0  0.15625 1.078125 0  0.1875 1.078125 0  0.21875 1.078125 0  0.25 1.078125 0  0.28125 1.078125 0  0.3125 1.078125 0  0.34375 1.078125 0  0.375 1.078125 0  0.40625 1.078125 0  0.4375 1.078125 0  0.46875 1.078125 0  0.5 1.078125 0  0.53125 1.078125 0  0.5625 1.078125 0  0.59375 1.078125 0  0.625 1.078125 0  0.65625 1.078125 0  0.6875 1.078125 0  0.71875 1.078125 0  0.75 1.078125 0  0.78125 1.078125 0  0.8125 1.078125 0  0.84375 1.078125 0  0.875 1.078125 0  0.90625 1.078125 0  0.9375 1.078125 0  0.96875 1.078125 0  1 1.078125 0  0.03125 1.125 0  0 1.125 0  0.0625 1.125 0  0.09375 1.125 0  0.125 1.125 0  0.15625 1.125 0  0.1875 1.125 0  0.21875 1.125 0  0.25 1.125 0  0.28125 1.125 0  0.3125 1.125 0  0.34375 1.125 0  0.375 1.125 0  0.40625 1.125 0  0.4375 1.125 0  0.46875 1.125 0  0.5 1.125 0  0.53125 1.125 0  0.5625 1.125 0  0.59375 1.125 0  0.625 1.125 0  0.65625 1.125 0  0.6875 1.125 0  0.71875 1.125 0  0.75 1.125 0  0.78125 1.125 0  0.8125 1.125 0  0.84375 1.125 0  0.875 1.125 0  0.90625 1.125 0  0.9375 1.125 0  0.96875 1.125 0  1 1.125 0  0.03125 1.171875 0  0 1.171875 0  0.0625 1.171875 0  0.09375 1.171875 0  0.125 1.171875 0  0.15625 1.171875 0  0.1875 1.171875 0  0.21875 1.171875 0  0.25 1.171875 0  0.28125 1.171875 0  0.3125 1.171875 0  0.34375 1.171875 0  0.375 1.171875 0  0.40625 1.171875 0  0.4375 1.171875 0  0.46875 1.171875 0  0.5 1.171875 0  0.53125 1.171875 0  0.5625 1.171875 0  0.59375 1.171875 0  0.625 1.171875 0  0.65625 1.171875 0  0.6875 1.171875 0  0.71875 1.171875 0  0.75 1.171875 0  0.78125 1.171875 0  0.8125 1.171875 0  0.84375 1.171875 0  0.875 1.171875 0  0.90625 1.171875 0  0.9375 1.171875 0  0.96875 1.171875 0  1 1.171875 0  0.03125 1.21875 0  0 1.21875 0  0.0625 1.21875 0  0.09375 1.21875 0  0.125 1.21875 0  0.15625 1.21875 0  0.1875 1.21875 0  0.21875 1.21875 0  0.25 1.21875 0  0.28125 1.21875 0  0.3125 1.21875 0  0.34375 1.21875 0  0.375 1.21875 0  0.40625 1.21875 0  0.4375 1.21875 0  0.46875 1.21875 0  0.5 1.21875 0  0.53125 1.21875 0  0.5
[...]
<PointData  Vectors="u"> 
<DataArray  type="Float64"  Name="u"  NumberOfComponents="3" format="ascii">1.4116401386709445e-02 7.1452961755219665e-04 0.0000000000000000e+00  1.6277594775762256e-02 3.9893960274963074e-03 0.0000000000000000e+00  1.7909144344506293e-02 4.2714885548007777e-03 0.0000000000000000e+00  1.5337466728823529e-02 9.3240335987218224e-04 0.0000000000000000e+00  1.5726478907929227e-02 7.2650184611054427e-03 0.0000000000000000e+00  1.7523748704399711e-02 7.8605041483496407e-03 0.0000000000000000e+00  1.4635499674366824e-02 1.0194597692471750e-02 0.0000000000000000e+00  1.6218954563578778e-02 1.1032496440004768e-02 0.0000000000000000e+00  1.3206364427884618e-02 1.2658701140256610e-02 0.0000000000000000e+00  1.4558906932497758e-02 1.3676000514319508e-02 0.0000000000000000e+00  1.1547067349453320e-02 1.4591627721201214e-02 0.0000000000000000e+00  1.2696879402340596e-02 1.5729459679144145e-02 0.0000000000000000e+00  9.7472970823810293e-03 1.5949101027690135e-02 0.0000000000000000e+00  1.0721973567883630e-02 1.7154521802269545e-02 0.0000000000000000e+00  7.8853435213189250e-03 1.6707077781437478e-02 0.0000000000000000e+00  8.7091863267568532e-03 1.7933222442410284e-02 0.0000000000000000e+00  6.0301711643887613e-03 1.6861461416142060e-02 0.0000000000000000e+00  6.7244910670601699e-03 1.8067048767921565e-02 0.0000000000000000e+00  4.2423886207398091e-03 1.6426885451053808e-02 0.0000000000000000e+00  4.8257588096216079e-03 1.7575810566145059e-02 0.0000000000000000e+00  2.5748480527096941e-03 1.5435088241291559e-02 0.0000000000000000e+00  3.0635719257128208e-03 1.6496005181046530e-02 0.0000000000000000e+00  1.0731511155344807e-03 1.3932962860821877e-02 0.0000000000000000e+00  1.4814285727978258e-03 1.4879010787676087e-02 0.0000000000000000e+00  -2.2398432334099001e-04 1.1980579296843418e-02 0.0000000000000000e+00  1.1630091669565146e-04 1.2789082987102801e-02 0.0000000000000000e+00  -1.2843380696278761e-03 9.6491058896431940e-03 0.0000000000000000e+00  -1.0012059637103455e-03 1.0301406774815875e-02 0.0000000000000000e+00  -2.0819653152847595e-03 7.0188191665715638e-03 0.0000000000000000e+00  -1.8465194473666143e-03 7.5000884534066276e-03 0.0000000000000000e+00  -2.5969919010932975e-03 4.1770796872014453e-03 0.0000000000000000e+00  -2.4010616902030578e-03 4.4762584712729758e-03 0.0000000000000000e+00  -2.8154928309448457e-03 1.2163923845587403e-03 0.0000000000000000e+00  -2.6520357722448523e-03 1.3261342804489339e-03 0.0000000000000000e+00  -2.7294287726486862e-03 -1.7675673418604447e-03 0.0000000000000000e+00  -2.5925291094980175e-03 -1.8508329702996073e-03 0.0000000000000000e+00  -2.3367057807437571e-03 -4.6779008036117965e-03 0.0000000000000000e+00  -2.2215448407040626e-03 -4.9538834639327178e-03 0.0000000000000000e+00  -1.6412669568265697e-03 -7.4185141879936122e-03 0.0000000000000000e+00  -1.5442394881061293e-03 -7.8828699644949395e-03 0.0000000000000000e+00  -6.5326501510056586e-04 -9.8961889878739426e-03 0.0000000000000000e+00  -5.7210957391209830e-04 -1.0540304202794790e-02 0.0000000000000000e+00  6.1070613276233859e-04 -1.2022787690280538e-02 0.0000000000000000e+00  6.7657753238167882e-04 -1.2833474543627784e-02 0.0000000000000000e+00  2.1273105172187373e-03 -1.3717545920831690e-02 0.0000000000000000e+00  2.1764359512573546e-03 -1.4676733296457028e-02 0.0000000000000000e+00  3.8662201655216511e-03 -1.4909525824997300e-02 0.0000000000000000e+00  3.8944696371429549e-03 -1.5993886369201332e-02 0.0000000000000000e+00  5.7898221079405862e-03 -1.5540144711010487e-02 0.0000000000000000e+00  5.7897040435546058e-03 -1.6720742783077738e-02 0.0000000000000000e+00  7.8529927287434558e-03 -1.5565812574196385e-02 0.0000000000000000e+00  7.8126760401704253e-03 -1.6807709989010780e-02 0.0000000000000000e+00  1.0002713818158069e-02 -1.4960565014866131e-02 0.0000000000000000e+00  9.9050453431942468e-03 -1.6222437020145464e-02 0.0000000000000000e+00  1.2176840482199016e-02 -1.3718705155743759e-02 0.0000000000000000e+00  1.1998426957223498e-02 -1.4952356771266549e-02 0.0000000000000000e+00  1.4298488581919700e-02 -1.1857512006460909e-02 0.0000000000000000e+00  1.4010395170009174e-02 -1.3007184185028609e-02 0.0000000000000000e+00  1.6249774633192080e-02 -9.4210525850340621e-03 0.0000000000000000e+00  1.5825468730494591e-02 -1.0421946015767437e-02 0.0000000000000000e+00  1.7752578276308204e-02 -6.4917803288841456e-03 0.0000000000000000e+00  1.7208733993870212e-02 -7.2655742901540929e-03 0.0000000000000000e+00  1.7927576620664559e-02 -3.2623582852743011e-03 0.0000000000000000e+00  1.7459893505024596e-02 -3.6937566336186457e-03 0.0000000000000000e+00  1.5189945684743108e-02 -3.0009062240626719e-04 0.0000000000000000e+00  1.4590423252732248e-02 -4.1159118321341915e-04 0.0000000000000000e+00  1.9809735372840028e-02 5.0661778371017202e-03 0.0000000000000000e+00  1.7169906531269177e-02 1.3983233895232810e-03 0.0000000000000000e+00  1.9303854791735929e-02 9.3118701346044750e-03 0.0000000000000000e+00  1.7925723040796732e-02 1.3011101604597331e-02 0.0000000000000000e+00  1.6157623160043464e-02 1.6036969868569263e-02 0.0000000000000000e+00  1.4168985350782074e-02 1.8340962271951311e-02 0.0000000000000000e+00  1.2062183303183894e-02 1.9898677199360199e-02 0.0000000000000000e+00  9.9185028136821018e-03 2.0705425835223359e-02 0.0000000000000000e+00  7.8080839284878660e-03 2.0775308268860537e-02 0.0000000000000000e+00  5.7924361610222240e-03 2.0139911747640932e-02 0.0000000000000000e+00  3.9246073315528729e-03 1.8846797985473843e-02 0.0000000000000000e+00  2.2501754465333338e-03 1.6957643524401298e-02 0.0000000000000000e+00  8.0730726038103016e-04 1.4546432116522923e-02 0.0000000000000000e+00  -3.7234890844578268e-04 1.1697479222619465e-02 0.0000000000000000e+00  -1.2637324150525868e-03 8.5036654324996738e-03 0.0000000000000000e+00  -1.8477151636586574e-03 5.0645553794071525e-03 0.0000000000000000e+00  -2.1112146023441196e-03 1.4847363297064808e-03 0.0000000000000000e+00  -2.0468986587368300e-03 -2.1279716377234285e-03 0.0000000000000000e+00  -1.6535183663022746e-03 -5.6641605854022507e-03 0.0000000000000000e+00  -9.3588904256928596e-04 -9.0146649047696190e-03 0.0000000000000000e+00  9.4558435411569645e-05 -1.2072360105243029e-02 0.0000000000000000e+00  1.4194910439513154e-03 -1.4734198178043490e-02 0.0000000000000000e+00  3.0128871798294054e-03 -1.6903308039730749e-02 0.0000000000000000e+00  4.8406517530858581e-03 -1.8491347946039037e-02 0.0000000000000000e+00  6.8597423290966417e-03 -1.9420936061259057e-02 0.0000000000000000e+00  9.0177595261733898e-03 -1.9628254510558541e-02 0.0000000000000000e+00  1.1252072926053455e-02 -1.9065606839793924e-02 0.0000000000000000e+00  1.3488745219693994e-02 -1.7703934128304032e-02 0.0000000000000000e+00  1.5637769950921462e-02 -1.5535152345369382e-02 0.0000000000000000e+00  1.7572051673085509e-02 -1.2575104676375855e-02 0.0000000000000000e+00  1.9028166187380527e-02 -8.8733607883061880e-03 0.0000000000000000e+00  1.9188202591905495e-02 -4.5895408356219931e-03 0.0000000000000000e+00  1.5681247068786409e-02 -8.5876885113632861e-04 0.0000000000000000e+00  2.2684892936957943e-02 6.0281208085437715e-03 0.0000000000000000e+00  1.9756186315570703e-02 1.8639414494899451e-03 0.0000000000000000e+00  2.2100835343641712e-02 1.1038770273603015e-02 0.0000000000000000e+00  2.0603351537407021e-02 1.5355445989661220e-02 0.0000000000000000e+00  1.8691578047033374e-02 1.8829873114385862e-02 0.0000000000000000e+00  1.6542526496499500e-02 2.1425988184600838e-02 0.0000000000000000e+00  1.4266162387189517e-02 2.3135534102932117e-02 0.0000000000000000e+00  1.1951683733774868e-02 2.3970066344019214e-02 0.0000000000000000e+00  9.6763471822491811e-03 2.3959181302024925e-02 0.0000000000000000e+00  7.5064879544792986e-03 2.3149099298086076e-02 0.0000000000000000e+00  5.4994502911367227e-03 2.1600960115799168e-02 0.0000000000000000e+00  3.7032104925925724e-03 1.9389080335489420e-02 0.0000000000000000e+00  2.1581699278711269e-03 1.6599034321373721e-02 0.0000000000000000e+00  8.9682910912109988e-04 1.3325958739302000e-02 0.0000000000000000e+00  -5.4679646639699099e-05 9.6727371230405316e-03 0.0000000000000000e+00  -6.7697101211470611e-04 5.7485308912667990e-03 0.0000000000000000e+00  -9.5624269460376757e-04 1.6671359190083368e-03 0.0000000000000000e+00  -8.8487087360733443e-04 -2.4543226907619304e-03 0.0000000000000000e+00  -4.6082312134590301e-04 -6.4969596695326993e-03 0.0000000000000000e+00  3.1152015052380097e-04 -1.0341481606424060e-02 0.0000000000000000e+00  1.4214359442651047e-03 -1.3869885432768155e-02 0.0000000000000000e+00  2.8506816337599554e-03 -1.6967101149228721e-02 0.0000000000000000e+00  4.5731713100366899e-03 -1.9523013668077283e-02 0.0000000000000000e+00  6.5536176207043381e-03 -2.1434559150968140e-02 0.0000000000000000e+00  8.7470547014940961e-03 -2.2608149954391345e-02 0.0000000000000000e+00  1.1097458730497856e-02 -2.2962175621344796e-02 0.0000000000000000e+00  1.3537294969379823e-02 -2.2429653172542644e-02 0.0000000000000000e+00  1.5985488257287215e-02 -2.0960793755573047e-02 0.0000000000000000e+00  1.8342396197290459e-02 -1.8525605989573021e-02 0.0000000000000000e+00  2.0464052957235825e-02 -1.5117521646997820e-02 0.0000000000000000e+00  2.2041982078268275e-02 -1.0767020540411124e-02 0.0000000000000000e+00  2.2093538828300965e-02 -5.6509280622357005e-03 0.0000000000000000e+00  1.7841475021073500e-02 -1.3598293645351370e-03 0.0000000000000000e+00  2.6554407571876992e-02 7.0926766759275058e-03 0.0000000000000000e+00  2.3140644951526596e-02 2.3477420452934499e-03 0.0000000000000000e+00  2.5920204678580951e-02 1.2945534199383019e-02 0.0000000000000000e+00  2.4291374504963017e-02 1.7936852644390853e-02 0.0000000000000000e+00  2.2217000529099272e-02 2.1897911152971971e-02 0.0000000000000000e+00  1.9887244920094874e-02 2.4807000426433655e-02 0.0000000000000000e+00  1.7422362063973382e-02 2.6674161124498295e-02 0.0000000000000000e+00  1.4920901709064164e-02 2.7529641035412552e-02 0.0000000000000000e+00  1.2466628305770540e-02 2.7421126520878358e-02 0.0000000000000000e+00  1.0132015861183924e-02 2.6411903207554349e-02 0.0000000000000000e+00  7.9775588936298360e-03 2.4578912634043493e-02 0.0000000000000000e+00  6.0544308111391805e-03 2.2010860702475068e-02 0.0000000000000000e+00  4.4036921147902917e-03 1.8806374601784626e-02 0.0000000000000000e+00  3.0591849219783118e-03 1.5072272498217357e-02 0.0000000000000000e+00  2.0465510257777408e-03 1.0922116737116403e-02 0.0000000000000000e+00  1.3858516824815305e-03 6.4747748910697744e-03 0.0000000000000000e+00  1.0904281346027483e-03 1.8533856827595572e-03 0.0000000000000000e+00  1.1688261360239254e-03 -2.8158739611644991e-03 0.0000000000000000e+00  1.6232898343244058e-03 -7.4046232382032071e-03 0.0000000000000000e+00  2.4508673451237922e-03 -1.1783523720277357e-02 0.0000000000000000e+00  3.6415678878999008e-03 -1.5823280979756996e-02 0.0000000000000000e+00  5.1785742679941677e-03 -1.9396174891137430e-02 0.0000000000000000e+00  7.0360814401610261e-03 -2.2377573120840939e-02 0.0000000000000000e+00  9.1790108921927498e-03 -2.4647964182474860e-02 0.0000000000000000e+00  1.1560784665596031e-02 -2.6095156612955368e-02 0.0000000000000000e+00  1.4122820833306203e-02 -2.6616864616957565e-02 0.0000000000000000e+00  1.6792575664693794e-02 -2.6123465127414550e-02 0.0000000000000000e+00  1.9482169151071323e-02 -2.4540924301849062e-02 0.0000000000000000e+00  2.2081282188078463e-02 -2.1813996857715148e-02 0.0000000000000000e+00  2.4426786653136946e-02 -1.7911166471135425e-02 0.0000000000000000e+00  2.6155298442865856e-02 -1.2843079042223060e-02 0.0000000000000000e+00  2.6081731183182428e-02 -6.8066066775688168e-03 0.0000000000000000e+00  2.0887048714964621e-02 -1.8581570630624175e-03 0.0000000000000000e+00  3.1464577837182248e-02 8.2557507427420216e-03 0.0000000000000000e+00  2.7365435083554119e-02 2.8712403987645641e-03 0.0000000000000000e+00  3.0807987904602745e-02 1.5022669698245093e-02 0.0000000000000000e+00  2.9043920424320274e-02 2.0740693724546917e-02 0.0000000000000000e+00  2.6801026145467217e-02 2.5220868203732837e-02 0.0000000000000000e+00  2.4288821165833939e-02 2.8457717172051474e-02 0.0000000000000000e+00  2.1639551342558867e-02 3.0482442533402054e-02 0.0000000000000000e+00  1.8959816648361286e-02 3.1346995388295246e-02 0.0000000000000000e+00  1.6340676266200043e-02 3.1120270688271209e-02 0.0000000000000000e+00  1.3858157242442168e-02 2.9885424705793504e-02 0.0000000000000000e+00  1.1576294486571088e-02 2.7737692542774341e-02 0.0000000000000000e+00  9.5462173596538961e-03 2.4782099063459385e-02 0.0000000000000000e+00  7.8100235046007207e-03 2.1131690778057776e-02 0.0000000000000000e+00  6.3995607692384111e-03 1.6905810500378531e-02 0.0000000000000000e+00  5.3406075510843585e-03 1.2228901091981667e-02 0.0000000000000000e+00  4.6510165298345998e-03 7.2294785840611286e-03 0.0000000000000000e+00  4.3447282376224061e-03 2.0393896881816787e-03 0.0000000000000000e+00  4.4292168599099919e-03 -3.2066590221775499e-03 0.0000000000000000e+00  4.9085375349679303e-03 -8.3716737600625594e-03 0.0000000000000000e+00  5.7803255600303123e-03 -1.3316674382550568e-02 0.0000000000000000e+00  7.0375180992673474e-03 -1.7901470434695536e-02 0.0000000000000000e+00  8.6649942097197941e-03 -2.1985329745123083e-02 0.0000000000000000e+00  1.0639895323640250e-02 -2.5428321180071673e-02 0.0000000000000000e+00  1.2928337937078689e-02 -2.8092829502217670e-02 0.0000000000000000e+00  1.5484859513005839e-02 -2.9845723318988684e-02 0.0000000000000000e+00  1.8249482991034866e-02 -3.0560916779996575e-02 0.0000000000000000e+00  2.1146871235057287e-02 -3.0122416855954171e-02 0.0000000000000000e+00  2.4082968768275311e-02 -2.8427811371527504e-02 0.0000000000000000e+00  2.6937504234355390e-02 -2.5392366285076472e-02 0.0000000000000000e+00  2.9525885432975824e-02 -2.0955738259794118e-02 0.0000000000000000e+00  3.1419716225420107e-02 -1.5105821980601813e-02 0.0000000000000000e+00  3.1186029585589969e-02 -8.0601159962107160e-03 0.0000000000000000e+00  2.4808132997950465e-02 -2.3729759841603177e-03 0.0000000000000000e+00  3.7508511337451256e-02 9.5177020633682736e-03 0.0000000000000000e+00  3.2504238739104060e-02 3.4512676402146821e-03 0.0000000000000000e+00  3.6862295754898612e-02 1.7266470436073558e-02 0.0000000000000000e+00  3.4968535625719298e-02 2.3757717726631510e-02 0.0000000000000000e+00  3.2565010230836210e-02 2.8781669082658261e-02 0.0000000000000000e+00  2.9887506012653792e-02 3.2352307745022117e-02 0.0000000000000000e+00  2.7080043786297085e-02 3.4525766207876452e-02 0.0000000000000000e+00  2.4257482105507037e-02 3.5379804316765802e-02 0.0000000000000000e+00  2.1515092310645020e-02 3.5008309886444593e-02 0.0000000000000000e+00  1.8931792366694178e-02 3.3517875233431721e-02 0.0000000000000000e+00  1.6570684923662954e-02 3.1024763179547808e-02 0.0000000000000000e+00  1.4482284634234076e-02 2.7652538098714877e-02 0.0000000000000000e+00  1.2704595154615372e-02 2.3529875028095195e-02 0.0000000000000000e+00  1.1267704219316005e-02 1.8789270932131587e-02 0.0000000000000000e+00  1.0192519053358667e-02 1.3565829153515844e-02 0.0000000000000000e+00  9.4960957394240909e-03 7.9969907478229015e-03 0.0000000000000000e+00  9.1888275408441612e-03 2.2221641063088645e-03 0.0000000000000000e+00  9.2796241377718584e-03 -3.6169182460881162e-03 0.0000000000000000e+00  9.7716491101614046e-03 -9.3760277757979644e-03 0.0000000000000000e+00  1.0666431779851085e-02 -1.4908039941037822e-02 0.0000000000000000e+00  1.1958980277280599e-02 -2.0062714138992813e-02 0.0000000000000000e+00  1.3639746809479773e-02 -2.4686864908827370e-02 0.0000000000000000e+00  1.5689769850053995e-02 -2.8624788417767017e-02 0.0000000000000000e+00  1.8080571812935892e-02 -3.1719532049838205e-02 0.0000000000000000e+00  2.0769935403254492e-02 -3.3814631855331748e-02 0.0000000000000000e+00  2.3700476577364283e-02 -3.4756799726182688e-02 0.0000000000000000e+00  2.6796366474562419e-02 -3.4399272137519366e-02 0.0000000000000000e+00  2.9960252122020539e-02 -3.2606036422317387e-02 0.0000000000000000e+00  3.3062791286005998e-02 -2.9257148630025619e-02 0.0000000000000000e+00  3.5896654158364356e-02 -2.4257540756280515e-02 0.0000000000000000e+00  3.7956711719155892e-02 -1.7567090117306446e-02 0.0000000000000000e+00  3.7509729124556301e-02 -9.4232438267319290e-03 0.0000000000000000e+00  2.9663594470244581e-02 -2.9289519746375737e-03 0.0000000000000000e+00  4.4816238058076836e-02 1.0874324547137212e-02 0.0000000000000000e+00  3.8657547791783688e-02 4.1014099456782721e-03 0.0000000000000000e+00  4.4222255528468660e-02 1.9664320462204017e-02 0.0000000000000000e+00  4.2214764066722796e-02 2.6963504499517447e-02 0.0000000000000000e+00  3.9674079613495568e-02 3.2541519257212902e-02 0.0000000000000000e+00  3.6868346105712851e-02 3.6436687829357828e-02 0.0000000000000000e+00  3.3954090755870435e-02 3.8735594053616443e-02 0.0000000000000000e+00  3.1052329978151112e-02 3.9547285573280376e-02 0.0000000000000000e+00  2.8260387776572891e-02 3.8995704711448982e-02 0.0000000000000000e+00  2.5655571576686156e-02 3.7215115018475360e-02 0.0000000000000000e+00  2.3297306278899532e-02 3.4346191499823812e-02 0.0000000000000000e+00  2.1229602820790651e-02 3.0533150127415070e-02 0.0000000000000000e+00  1.9484510352762333e-02 2.5921547246705454e-02 0.0000000000000000e+00  1.8083898694775592e-02 2.0656912919423807e-02 0.0000000000000000e+00  1.7043930162913737e-02 1.4884337979980983e-02 0.0000000000000000e+00  1.6374670177470265e-02 8.7483366620068025e-03 0.0000000000000000e+00  1.6085450061522281e-02 2.3938822546762731e-03 0.0000000000000000e+00  1.6181646302605681e-02 -4.0329588742824560e-03 0.0000000000000000e+00  1.6669877863846626e-02 -1.0383237730104061e-02 0.0000000000000000e+00  1.7552691548873383e-02 -1.6504188395390272e-02 0.0000000000000000e+00  1.8832421030565278e-02 -2.2237638676194330e-02 0.0000000000000000e+00  2.0504946611539832e-02 -2.7419263238160418e-02 0.0000000000000000e+00  2.2560816919503450e-02 -3.1878184288396103e-02 0.0000000000000000e+00  2.4979486898795478e-02 -3.5437262011393945e-02 0.0000000000000000e+00  2.7727702746358131e-02 -3.7914660689355964e-02 0.0000000000000000e+00  3.0754735941384049e-02 -3.9126160356759809e-02 0.0000000000000000e+00  3.3989354764584249e-02 -3.8889082723124455e-02 0.0000000000000000e+00  3.7334591961802069e-02 -3.7027205148755238e-02 0.0000000000000000e+00  4.0654764974687792e-02 -3.3377682215096592e-02 0.0000000000000000e+00  4.3718829839732874e-02 -2.7802340122754548e-02 0.0000000000000000e+00  4.5932246468634232e-02 -2.0224969973322283e-02 0.0000000000000000e+00  4.5200846909646340e-02 -1.0900615473926472e-02 0.0000000000000000e+00  3.5551873686296045e-02 -3.5458897260759624e-03 0.0000000000000000e+00  5.3548276526183110e-02 1.2315022505709389e-02 0.0000000000000000e+00  4.5947407045076133e-02 4.8334414783482759e-03 0.0000000000000000e+00  5.3059467617893007e-02 2.2190257133451956e-02 0.0000000000000000e+00  5.0966340142772411e-02 3.0312399725865316e-02 0.0000000000000000e+00  4.8329606540161142e-02 3.6432152155036063e-02 0.0000000000000000e+00  4.5456503936935372e-02 4.0619382618776789e-02 0.0000000000000000e+00  4.2516021407883228e-02 4.2999125452667340e-02 0.0000000000000000e+00  3.9632629903108903e-02 4.3719135084100441e-02 0.0000000000000000e+00  3.6901450676787198e-02 4.2940143714584933e-02 0.0000000000000000e+00  3.4393173914148069e-02 4.0829296967221519e-02 0.0000000000000000e+00  3.2157461431220287e-02 3.7555601412228933e-02 0.0000000000000000e+00  3.0226757656941453e-02 3.3286096366455985e-02 0.0000000000000000e+00  2.8620474463197983e-02 2.8183923869983692e-02 0.0000000000000000e+00  2.7349004141195066e-02 2.2407023611232622e-02 0.0000000000000000e+00  2.6417130859105391e-02 1.6108408093161320e-02 0.0000000000000000e+00  2.5827597302141410e-02 9.4370775219607302e-03 0.0000000000000000e+00  2.5582619156692944e-02 2.5396403541959067e-03 0.0000000000000000e+00  2.5686972341643854e-02 -4.4371222362236699e-03 0.0000000000000000e+00  