<?xml version="1.0"?>
<VTKFile type="UnstructuredGrid"  version="0.1"  >
<UnstructuredGrid>
<Piece  NumberOfPoints="759" NumberOfCells="1408">
<Points>
<DataArray  type="Float64"  NumberOfComponents="3"  format="ascii">0 0.46875 0  0.03125 0.46875 0  0.03125 0.515625 0  0 0.515625 0  0.0625 0.46875 0  0.0625 0.515625 0  0.09375 0.46875 0  0.09375 0.515625 0  0.125 0.46875 0  0.125 0.515625 0  0.15625 0.46875 0  0.15625 0.515625 0  0.1875 0.46875 0  0.1875 0.515625 0  0.21875 0.46875 0  0.21875 0.515625 0  0.25 0.46875 0  0.25 0.515625 0  0.28125 0.46875 0  0.28125 0.515625 0  0.3125 0.46875 0  0.3125 0.515625 0  0.34375 0.46875 0  0.34375 0.515625 0  0.375 0.46875 0  0.375 0.515625 0  0.40625 0.46875 0  0.40625 0.515625 0  0.4375 0.46875 0  0.4375 0.515625 0  0.46875 0.46875 0  0.46875 0.515625 0  0.5 0.46875 0  0.5 0.515625 0  0.53125 0.46875 0  0.53125 0.515625 0  0.5625 0.46875 0  0.5625 0.515625 0  0.59375 0.46875 0  0.59375 0.515625 0  0.625 0.46875 0  0.625 0.515625 0  0.65625 0.46875 0  0.65625 0.515625 0  0.6875 0.46875 0  0.6875 0.515625 0  0.71875 0.46875 0  0.71875 0.515625 0  0.75 0.46875 0  0.75 0.515625 0  0.78125 0.46875 0  0.78125 0.515625 0  0.8125 0.46875 0  0.8125 0.515625 0  0.84375 0.46875 0  0.84375 0.515625 0  0.875 0.46875 0  0.875 0.515625 0  0.90625 0.46875 0  0.90625 0.515625 0  0.9375 0.46875 0  0.9375 0.515625 0  0.96875 0.46875 0  0.96875 0.515625 0  1 0.46875 0  1 0.515625 0  0.03125 0.5625 0  0 0.5625 0  0.0625 0.5625 0  0.09375 0.5625 0  0.125 0.5625 0  0.15625 0.5625 0  0.1875 0.5625 0  0.21875 0.5625 0  0.25 0.5625 0  0.28125 0.5625 0  0.3125 0.5625 0  0.34375 0.5625 0  0.375 0.5625 0  0.40625 0.5625 0  0.4375 0.5625 0  0.46875 0.5625 0  0.5 0.5625 0  0.53125 0.5625 0  0.5625 0.5625 0  0.59375 0.5625 0  0.625 0.5625 0  0.65625 0.5625 0  0.6875 0.5625 0  0.71875 0.5625 0  0.75 0.5625 0  0.78125 0.5625 0  0.8125 0.5625 0  0.84375 0.5625 0  0.875 0.5625 0  0.90625 0.5625 0  0.9375 0.5625 0  0.96875 0.5625 0  1 0.5625 0  0.03125 0.609375 0  0 0.609375 0  0.0625 0.609375 0  0.09375 0.609375 0  0.125 0.609375 0  0.15625 0.609375 0  0.1875 0.609375 0  0.21875 0.609375 0  0.25 0.609375 0  0.28125 0.609375 0  0.3125 0.609375 0  0.34375 0.609375 0  0.375 0.609375 0  0.40625 0.609375 0  0.4375 0.609375 0  0.46875 0.609375 0  0.5 0.609375 0  0.53125 0.609375 0  0.5625 0.609375 0  0.59375 0.609375 0  0.625 0.609375 0  0.65625 0.609375 0  0.6875 0.609375 0  0.71875 0.609375 0  0.75 0.609375 0  0.78125 0.609375 0  0.8125 0.609375 0  0.84375 0.609375 0  0.875 0.609375 0  0.90625 0.609375 0  0.9375 0.609375 0  0.96875 0.609375 0  1 0.609375 0  0.03125 0.65625 0  0 0.65625 0  0.0625 0.65625 0  0.09375 0.65625 0  0.125 0.65625 0  0.15625 0.65625 0  0.1875 0.65625 0  0.21875 0.65625 0  0.25 0.65625 0  0.28125 0.65625 0  0.3125 0.65625 0  0.34375 0.65625 0  0.375 0.65625 0  0.40625 0.65625 0  0.4375 0.65625 0  0.46875 0.65625 0  0.5 0.65625 0  0.53125 0.65625 0  0.5625 0.65625 0  0.59375 0.65625 0  0.625 0.65625 0  0.65625 0.65625 0  0.6875 0.65625 0  0.71875 0.65625 0  0.75 0.65625 0  0.78125 0.65625 0  0.8125 0.65625 0  0.84375 0.65625 0  0.875 0.65625 0  0.90625 0.65625 0  0.9375 0.65625 0  0.96875 0.65625 0  1 0.65625 0  0.03125 0.703125 0  0 0.703125 0  0.0625 0.703125 0  0.09375 0.703125 0  0.125 0.703125 0  0.15625 0.703125 0  0.1875 0.703125 0  0.21875 0.703125 0  0.25 0.703125 0  0.28125 0.703125 0  0.3125 0.703125 0  0.34375 0.703125 0  0.375 0.703125 0  0.40625 0.703125 0  0.4375 0.703125 0  0.46875 0.703125 0  0.5 0.703125 0  0.53125 0.703125 0  0.5625 0.703125 0  0.59375 0.703125 0  0.625 0.703125 0  0.65625 0.703125 0  0.6875 0.703125 0  0.71875 0.703125 0  0.75 0.703125 0  0.78125 0.703125 0  0.8125 0.703125 0  0.84375 0.703125 0  0.875 0.703125 0  0.90625 0.703125 0  0.9375 0.703125 0  0.96875 0.703125 0  1 0.703125 0  0.03125 0.75 0  0 0.75 0  0.0625 0.75 0  0.09375 0.75 0  0.125 0.75 0  0.15625 0.75 0  0.1875 0.75 0  0.21875 0.75 0  0.25 0.75 0  0.28125 0.75 0  0.3125 0.75 0  0.34375 0.75 0  0.375 0.75 0  0.40625 0.75 0  0.4375 0.75 0  0.46875 0.75 0  0.5 0.75 0  0.53125 0.75 0  0.5625 0.75 0  0.59375 0.75 0  0.625 0.75 0  0.65625 0.75 0  0.6875 0.75 0  0.71875 0.75 0  0.75 0.75 0  0.78125 0.75 0  0.8125 0.75 0  0.84375 0.75 0  0.875 0.75 0  0.90625 0.75 0  0.9375 0.75 0  0.96875 0.75 0  1 0.75 0  0.03125 0.796875 0  0 0.796875 0  0.0625 0.796875 0  0.09375 0.796875 0  0.125 0.796875 0  0.15625 0.796875 0  0.1875 0.796875 0  0.21875 0.796875 0  0.25 0.796875 0  0.28125 0.796875 0  0.3125 0.796875 0  0.34375 0.796875 0  0.375 0.796875 0  0.40625 0.796875 0  0.4375 0.796875 0  0.46875 0.796875 0  0.5 0.796875 0  0.53125 0.796875 0  0.5625 0.796875 0  0.59375 0.796875 0  0.625 0.796875 0  0.65625 0.796875 0  0.6875 0.796875 0  0.71875 0.796875 0  0.75 0.796875 0  0.78125 0.796875 0  0.8125 0.796875 0  0.84375 0.796875 0  0.875 0.796875 0  0.90625 0.796875 0  0.9375 0.796875 0  0.96875 0.796875 0  1 0.796875 0  0.03125 0.84375 0  0 0.84375 0  0.0625 0.84375 0  0.09375 0.84375 0  0.125 0.84375 0  0.15625 0.84375 0  0.1875 0.84375 0  0.21875 0.84375 0  0.25 0.84375 0  0.28125 0.84375 0  0.3125 0.84375 0  0.34375 0.84375 0  0.375 0.84375 0  0.40625 0.84375 0  0.4375 0.84375 0  0.46875 0.84375 0  0.5 0.84375 0  0.53125 0.84375 0  0.5625 0.84375 0  0.59375 0.84375 0  0.625 0.84375 0  0.65625 0.84375 0  0.6875 0.84375 0  0.71875 0.84375 0  0.75 0.84375 0  0.78125 0.84375 0  0.8125 0.84375 0  0.84375 0.84375 0  0.875 0.84375 0  0.90625 0.84375 0  0.9375 0.84375 0  0.96875 0.84375 0  1 0.84375 0  0.03125 0.890625 0  0 0.890625 0  0.0625 0.890625 0  0.09375 0.890625 0  0.125 0.890625 0  0.15625 0.890625 0  0.1875 0.890625 0  0.21875 0.890625 0  0.25 0.890625 0  0.28125 0.890625 0  0.3125 0.890625 0  0.34375 0.890625 0  0.375 0.890625 0  0.40625 0.890625 0  0.4375 0.890625 0  0.46875 0.890625 0  0.5 0.890625 0  0.53125 0.890625 0  0.5625 0.890625 0  0.59375 0.890625 0  0.625 0.890625 0  0.65625 0.890625 0  0.6875 0.890625 0  0.71875 0.890625 0  0.75 0.890625 0  0.78125 0.890625 0  0.8125 0.890625 0  0.84375 0.890625 0  0.875 0.890625 0  0.90625 0.890625 0  0.9375 0.890625 0  0.96875 0.890625 0  1 0.890625 0  0.03125 0.9375 0  0 0.9375 0  0.0625 0.9375 0  0.09375 0.9375 0  0.125 0.9375 0  0.15625 0.9375 0  0.1875 0.9375 0  0.21875 0.9375 0  0.25 0.9375 0  0.28125 0.9375 0  0.3125 0.9375 0  0.34375 0.9375 0  0.375 0.9375 0  0.40625 0.9375 0  0.4375 0.9375 0  0.46875 0.9375 0  0.5 0.9375 0  0.53125 0.9375 0  0.5625 0.9375 0  0.59375 0.9375 0  0.625 0.9375 0  0.65625 0.9375 0  0.6875 0.9375 0  0.71875 0.9375 0  0.75 0.9375 0  0.78125 0.9375 0  0.8125 0.9375 0  0.84375 0.9375 0  0.875 0.9375 0  0.90625 0.9375 0  0.9375 0.9375 0  0.96875 0.9375 0  1 0.9375 0  0.03125 0.984375 0  0 0.984375 0  0.0625 0.984375 0  0.09375 0.984375 0  0.125 0.984375 0  0.15625 0.984375 0  0.1875 0.984375 0  0.21875 0.984375 0  0.25 0.984375 0  0.28125 0.984375 0  0.3125 0.984375 0  0.34375 0.984375 0  0.375 0.984375 0  0.40625 0.984375 0  0.4375 0.984375 0  0.46875 0.984375 0  0.5 0.984375 0  0.53125 0.984375 0  0.5625 0.984375 0  0.59375 0.984375 0  0.625 0.984375 0  0.65625 0.984375 0  0.6875 0.984375 0  0.71875 0.984375 0  0.75 0.984375 0  0.78125 0.984375 0  0.8125 0.984375 0  0.84375 0.984375 0  0.875 0.984375 0  0.90625 0.984375 0  0.9375 0.984375 0  0.96875 0.984375 0  1 0.984375 0  0.03125 1.03125 0  0 1.03125 0  0.0625 1.03125 0  0.09375 1.03125 0  0.125 1.03125 0  0.15625 1.03125 0  0.1875 1.03125 0  0.21875 1.03125 0  0.25 1.03125 0  0.28125 1.03125 0  0.3125 1.03125 0  0.34375 1.03125 0  0.375 1.03125 0  0.40625 1.03125 0  0.4375 1.03125 0  0.46875 1.03125 0  0.5 1.03125 0  0.53125 1.03125 0  0.5625 1.03125 0  0.59375 1.03125 0  0.625 1.03125 0  0.65625 1.03125 0  0.6875 1.03125 0  0.71875 1.03125 0  0.75 1.03125 0  0.78125 1.03125 0  0.8125 1.03125 0  0.84375 1.03125 0  0.875 1.03125 0  0.90625 1.03125 0  0.9375 1.03125 0  0.96875 1.03125 0  1 1.03125 0  0.03125 1.078125 0  0 1.078125 0  0.0625 1.078125 0  0.09375 1.078125 0  0.125 1.078125 0  0.15625 1.078125 0  0.1875 1.078125 0  0.21875 1.078125 0  0.25 1.078125 0  0.28125 1.078125 0  0.3125 1.078125 0  0.34375 1.078125 0  0.375 1.078125 0  0.40625 1.078125 0  0.4375 1.078125 0  0.46875 1.078125 0  0.5 1.078125 0  0.53125 1.078125 0  0.5625 1.078125 0  0.59375 1.078125 0  0.625 1.078125 0  0.65625 1.078125 0  0.6875 1.078125 0  0.71875 1.078125 0  0.75 1.078125 0  0.78125 1.078125 0  0.8125 1.078125 0  0.84375 1.078125 0  0.875 1.078125 0  0.90625 1.078125 0  0.9375 1.078125 0  0.96875 1.078125 0  1 1.078125 0  0.03125 1.125 0  0 1.125 0  0.0625 1.125 0  0.09375 1.125 0  0.125 1.125 0  0.15625 1.125 0  0.1875 1.125 0  0.21875 1.125 0  0.25 1.125 0  0.28125 1.125 0  0.3125 1.125 0  0.34375 1.125 0  0.375 1.125 0  0.40625 1.125 0  0.4375 1.125 0  0.46875 1.125 0  0.5 1.125 0  0.53125 1.125 0  0.5625 1.125 0  0.59375 1.125 0  0.625 1.125 0  0.65625 1.125 0  0.6875 1.125 0  0.71875 1.125 0  0.75 1.125 0  0.78125 1.125 0  0.8125 1.125 0  0.84375 1.125 0  0.875 1.125 0  0.90625 1.125 0  0.9375 1.125 0  0.96875 1.125 0  1 1.125 0  0.03125 1.171875 0  0 1.171875 0  0.0625 1.171875 0  0.09375 1.171875 0  0.125 1.171875 0  0.15625 1.171875 0  0.1875 1.171875 0  0.21875 1.171875 0  0.25 1.171875 0  0.28125 1.171875 0  0.3125 1.171875 0  0.34375 1.171875 0  0.375 1.171875 0  0.40625 1.171875 0  0.4375 1.171875 0  0.46875 1.171875 0  0.5 1.171875 0  0.53125 1.171875 0  0.5625 1.171875 0  0.59375 1.171875 0  0.625 1.171875 0  0.65625 1.171875 0  0.6875 1.171875 0  0.71875 1.171875 0  0.75 1.171875 0  0.78125 1.171875 0  0.8125 1.171875 0  0.84375 1.171875 0  0.875 1.171875 0  0.90625 1.171875 0  0.9375 1.171875 0  0.96875 1.171875 0  1 1.171875 0  0.03125 1.21875 0  0 1.21875 0  0.0625 1.21875 0  0.09375 1.21875 0  0.125 1.21875 0  0.15625 1.21875 0  0.1875 1.21875 0  0.21875 1.21875 0  0.25 1.21875 0  0.28125 1.21875 0  0.3125 1.21875 0  0.34375 1.21875 0  0.375 1.21875 0  0.40625 1.21875 0  0.4375 1.21875 0  0.46875 1.21875 0  0.5 1.21875 0  0.53125 1.21875 0  0.5
[...]
<PointData  Vectors="u"> 
<DataArray  type="Float64"  Name="u"  NumberOfComponents="3" format="ascii">1.4116403798901778e-02 7.1452966701740484e-04 0.0000000000000000e+00  1.6277597717574723e-02 3.9893947205730008e-03 0.0000000000000000e+00  1.7909147514534568e-02 4.2714872622604703e-03 0.0000000000000000e+00  1.5337469271108982e-02 9.3240341743118732e-04 0.0000000000000000e+00  1.5726481876969695e-02 7.2650158124862654e-03 0.0000000000000000e+00  1.7523751934537011e-02 7.8605015359745258e-03 0.0000000000000000e+00  1.4635502608876179e-02 1.0194593710300761e-02 0.0000000000000000e+00  1.6218957711881553e-02 1.1032492512494938e-02 0.0000000000000000e+00  1.3206367290240462e-02 1.2658695843618079e-02 0.0000000000000000e+00  1.4558909963697199e-02 1.3675995288040067e-02 0.0000000000000000e+00  1.1547070110584954e-02 1.4591621141735553e-02 0.0000000000000000e+00  1.2696882297301756e-02 1.5729453183207114e-02 0.0000000000000000e+00  9.7472997190578402e-03 1.5949093209335838e-02 0.0000000000000000e+00  1.0721976311347544e-02 1.7154514078421088e-02 0.0000000000000000e+00  7.8853460148138876e-03 1.6707068780308885e-02 0.0000000000000000e+00  8.7091889060108355e-03 1.7933213544866038e-02 0.0000000000000000e+00  6.0301734996854742e-03 1.6861451300426728e-02 0.0000000000000000e+00  6.7244934715790907e-03 1.8067038763177747e-02 0.0000000000000000e+00  4.2423907859870519e-03 1.6426874300808685e-02 0.0000000000000000e+00  4.8257610308943856e-03 1.7575799532709487e-02 0.0000000000000000e+00  2.5748500388341985e-03 1.5435076148092069e-02 0.0000000000000000e+00  3.0635739571485306e-03 1.6495993209045139e-02 0.0000000000000000e+00  1.0731529159529838e-03 1.3932949927246785e-02 0.0000000000000000e+00  1.4814304096579989e-03 1.4878997978312328e-02 0.0000000000000000e+00  -2.2398271294085469e-04 1.1980565635793181e-02 0.0000000000000000e+00  1.1630255604816763e-04 1.2789069451962698e-02 0.0000000000000000e+00  -1.2843366514568228e-03 9.6490916234952869e-03 0.0000000000000000e+00  -1.0012045230287769e-03 1.0301392635019301e-02 0.0000000000000000e+00  -2.0819640895969800e-03 7.0188044261794702e-03 0.0000000000000000e+00  -1.8465182047977260e-03 7.5000738386076203e-03 0.0000000000000000e+00  -2.5969908663216069e-03 4.1770646107462455e-03 0.0000000000000000e+00  -2.4010606435263021e-03 4.4762435185178619e-03 0.0000000000000000e+00  -2.8154919838297623e-03 1.2163771162656321e-03 0.0000000000000000e+00  -2.6520349176454294e-03 1.3261191329014608e-03 0.0000000000000000e+00  -2.7294281083709532e-03 -1.7675826531286429e-03 0.0000000000000000e+00  -2.5925284416536180e-03 -1.8508481647544718e-03 0.0000000000000000e+00  -2.3367052930685058e-03 -4.6779160058699337e-03 0.0000000000000000e+00  -2.2215443528926563e-03 -4.9538985541939633e-03 0.0000000000000000e+00  -1.6412666382587509e-03 -7.4185291277428771e-03 0.0000000000000000e+00  -1.5442391723293381e-03 -7.8828847978444656e-03 0.0000000000000000e+00  -6.5326485705249362e-04 -9.8962035117868500e-03 0.0000000000000000e+00  -5.7210942103347979e-04 -1.0540318626574783e-02 0.0000000000000000e+00  6.1070613978806928e-04 -1.2022801646944662e-02 0.0000000000000000e+00  6.7657753248067623e-04 -1.2833488406979366e-02 0.0000000000000000e+00  2.1273103834290774e-03 -1.3717559162532337e-02 0.0000000000000000e+00  2.1764358095072195e-03 -1.4676746452101390e-02 0.0000000000000000e+00  3.8662199016160862e-03 -1.4909538209517485e-02 0.0000000000000000e+00  3.8944693651049378e-03 -1.5993898675242292e-02 0.0000000000000000e+00  5.7898217248794903e-03 -1.5540156103424695e-02 0.0000000000000000e+00  5.7897036532341684e-03 -1.6720754104803677e-02 0.0000000000000000e+00  7.8529922375013515e-03 -1.5565822848632243e-02 0.0000000000000000e+00  7.8126755438276407e-03 -1.6807720200670475e-02 0.0000000000000000e+00  1.0002713229468104e-02 -1.4960574056205081e-02 0.0000000000000000e+00  9.9050447531613094e-03 -1.6222446006671137e-02 0.0000000000000000e+00  1.2176839806325411e-02 -1.3718712861227431e-02 0.0000000000000000e+00  1.1998426285757657e-02 -1.4952364429914072e-02 0.0000000000000000e+00  1.4298487828635518e-02 -1.1857518287160532e-02 0.0000000000000000e+00  1.4010394429297803e-02 -1.3007190426900675e-02 0.0000000000000000e+00  1.6249773812874575e-02 -9.4210573671098877e-03 0.0000000000000000e+00  1.5825467933404825e-02 -1.0421950767169483e-02 0.0000000000000000e+00  1.7752577406649907e-02 -6.4917835544138231e-03 0.0000000000000000e+00  1.7208733158347964e-02 -7.2655774936478549e-03 0.0000000000000000e+00  1.7927575756847343e-02 -3.2623599113634459e-03 0.0000000000000000e+00  1.7459892674546933e-02 -3.6937582480373564e-03 0.0000000000000000e+00  1.5189944964610378e-02 -3.0009061655752604e-04 0.0000000000000000e+00  1.4590422564742703e-02 -4.1159117487738899e-04 0.0000000000000000e+00  1.9809738669916734e-02 5.0661765877474795e-03 0.0000000000000000e+00  1.7169909194543625e-02 1.3983234666407520e-03 0.0000000000000000e+00  1.9303858144418363e-02 9.3118676084086669e-03 0.0000000000000000e+00  1.7925726313829854e-02 1.3011097801663605e-02 0.0000000000000000e+00  1.6157626313162404e-02 1.6036964799634231e-02 0.0000000000000000e+00  1.4168988363299684e-02 1.8340955961124953e-02 0.0000000000000000e+00  1.2062186159709463e-02 1.9898669684007830e-02 0.0000000000000000e+00  9.9185055012769030e-03 2.0705417165685969e-02 0.0000000000000000e+00  7.8080864362046372e-03 2.0775298508145225e-02 0.0000000000000000e+00  5.7924384798158802e-03 2.0139900971045548e-02 0.0000000000000000e+00  3.9246094542473488e-03 1.8846786280113485e-02 0.0000000000000000e+00  2.2501773678009064e-03 1.6957630988613519e-02 0.0000000000000000e+00  8.0730897673245139e-04 1.4546418859141404e-02 0.0000000000000000e+00  -3.7234739867136185e-04 1.1697465362109968e-02 0.0000000000000000e+00  -1.2637311117154025e-03 8.5036510959592086e-03 0.0000000000000000e+00  -1.8477140648571646e-03 5.0645407014297296e-03 0.0000000000000000e+00  -2.1112137044690198e-03 1.4847214511236266e-03 0.0000000000000000e+00  -2.0468979565475046e-03 -2.1279865712203719e-03 0.0000000000000000e+00  -1.6535178530276066e-03 -5.6641754247455326e-03 0.0000000000000000e+00  -9.3588871002526228e-04 -9.0146794990927058e-03 0.0000000000000000e+00  9.4558596683385438e-05 -1.2072374303537659e-02 0.0000000000000000e+00  1.4194910445247352e-03 -1.4734211830882077e-02 0.0000000000000000e+00  3.0128870312171154e-03 -1.6903321001035893e-02 0.0000000000000000e+00  4.8406514675502447e-03 -1.8491360074881627e-02 0.0000000000000000e+00  6.8597419194513431e-03 -1.9420947223665008e-02 0.0000000000000000e+00  9.0177590055823664e-03 -1.9628264581301760e-02 0.0000000000000000e+00  1.1252072307834692e-02 -1.9065615704149864e-02 0.0000000000000000e+00  1.3488744517158641e-02 -1.7703941683742706e-02 0.0000000000000000e+00  1.5637769177355459e-02 -1.5535158503160890e-02 0.0000000000000000e+00  1.7572050842443759e-02 -1.2575109363077725e-02 0.0000000000000000e+00  1.9028165318571579e-02 -8.8733639470308240e-03 0.0000000000000000e+00  1.9188201730074347e-02 -4.5895424261461256e-03 0.0000000000000000e+00  1.5681246361687929e-02 -8.5876883453065561e-04 0.0000000000000000e+00  2.2684896400401909e-02 6.0281196095808487e-03 0.0000000000000000e+00  1.9756189120501005e-02 1.8639415414380320e-03 0.0000000000000000e+00  2.2100838864700191e-02 1.1038767843884694e-02 0.0000000000000000e+00  2.0603354979167890e-02 1.5355442325202516e-02 0.0000000000000000e+00  1.8691581368388919e-02 1.8829868220473261e-02 0.0000000000000000e+00  1.6542529675990198e-02 2.1425982080291360e-02 0.0000000000000000e+00  1.4266165408271050e-02 2.3135526821065823e-02 0.0000000000000000e+00  1.1951686582294625e-02 2.3970057930849619e-02 0.0000000000000000e+00  9.6763498459830621e-03 2.3959171816800282e-02 0.0000000000000000e+00  7.5064904230683332e-03 2.3149088812581698e-02 0.0000000000000000e+00  5.4994525561075595e-03 2.1600948713772612e-02 0.0000000000000000e+00  3.7032125473779073e-03 1.9389068112038312e-02 0.0000000000000000e+00  2.1581717678381572e-03 1.6599021382180130e-02 0.0000000000000000e+00  8.9683073158620247e-04 1.3325945199757890e-02 0.0000000000000000e+00  -5.4678242409894398e-05 9.6727231072475991e-03 0.0000000000000000e+00  -6.7696982492236059e-04 5.7485165309155437e-03 0.0000000000000000e+00  -9.5624172135462971e-04 1.6671213521372494e-03 0.0000000000000000e+00  -8.8487010937464633e-04 -2.4543373211179617e-03 0.0000000000000000e+00  -4.6082255945772879e-04 -6.4969742167985001e-03 0.0000000000000000e+00  3.1152051837118986e-04 -1.0341495922031844e-02 0.0000000000000000e+00  1.4214361278710515e-03 -1.3869899367787476e-02 0.0000000000000000e+00  2.8506816442548768e-03 -1.6967114556063374e-02 0.0000000000000000e+00  4.5731711596971574e-03 -1.9523026402216610e-02 0.0000000000000000e+00  6.5536173227469866e-03 -2.1434571072773578e-02 0.0000000000000000e+00  8.7470542698579248e-03 -2.2608160930902149e-02 0.0000000000000000e+00  1.1097458179615454e-02 -2.2962185528082810e-02 0.0000000000000000e+00  1.3537294313950765e-02 -2.2429661895293659e-02 0.0000000000000000e+00  1.5985487512077578e-02 -2.0960801192124224e-02 0.0000000000000000e+00  1.8342395377068308e-02 -1.8525612051385885e-02 0.0000000000000000e+00  2.0464052077416996e-02 -1.5117526260784438e-02 0.0000000000000000e+00  2.2041981159276254e-02 -1.0767023649491914e-02 0.0000000000000000e+00  2.2093537917853037e-02 -5.6509296264817786e-03 0.0000000000000000e+00  1.7841474274397372e-02 -1.3598293410167586e-03 0.0000000000000000e+00  2.6554411235426786e-02 7.0926755271682723e-03 0.0000000000000000e+00  2.3140647920868253e-02 2.3477421474916689e-03 0.0000000000000000e+00  2.5920208405925883e-02 1.2945531866847208e-02 0.0000000000000000e+00  2.4291378155139952e-02 1.7936849119687810e-02 0.0000000000000000e+00  2.2217004060022881e-02 2.1897906436461462e-02 0.0000000000000000e+00  1.9887248309158941e-02 2.4806994532615281e-02 0.0000000000000000e+00  1.7422365293318164e-02 2.6674154082035703e-02 0.0000000000000000e+00  1.4920904763000068e-02 2.7529632886687399e-02 0.0000000000000000e+00  1.2466631170391198e-02 2.7421117321485212e-02 0.0000000000000000e+00  1.0132018524389023e-02 2.6411893025758169e-02 0.0000000000000000e+00  7.9775613452021735e-03 2.4578901550179923e-02 0.0000000000000000e+00  6.0544330428249369e-03 2.2010848808271123e-02 0.0000000000000000e+00  4.4036941203666070e-03 1.8806361999584950e-02 0.0000000000000000e+00  3.0591866973154018e-03 1.5072259300103993e-02 0.0000000000000000e+00  2.0465525688697522e-03 1.0922103063918451e-02 0.0000000000000000e+00  1.3858529934634464e-03 6.4747608712588467e-03 0.0000000000000000e+00  1.0904292157370859e-03 1.8533714512371164e-03 0.0000000000000000e+00  1.1688269916650738e-03 -2.8158882643886415e-03 0.0000000000000000e+00  1.6232904708447014e-03 -7.4046374694296630e-03 0.0000000000000000e+00  2.4508677708159612e-03 -1.1783537733628618e-02 0.0000000000000000e+00  3.6415681128426506e-03 -1.5823294628769403e-02 0.0000000000000000e+00  5.1785743038897753e-03 -1.9396188030425168e-02 0.0000000000000000e+00  7.0360813001380858e-03 -2.2377585607816889e-02 0.0000000000000000e+00  9.1790105905848324e-03 -2.4647975879117396e-02 0.0000000000000000e+00  1.1560784217694832e-02 -2.6095167387601863e-02 0.0000000000000000e+00  1.4122820255101655e-02 -2.6616874346109518e-02 0.0000000000000000e+00  1.6792574972600095e-02 -2.6123473697532446e-02 0.0000000000000000e+00  1.9482168361673245e-02 -2.4540931611116725e-02 0.0000000000000000e+00  2.2081281317996443e-02 -2.1814002817750176e-02 0.0000000000000000e+00  2.4426785719601295e-02 -1.7911171008607753e-02 0.0000000000000000e+00  2.6155297468090217e-02 -1.2843082100241515e-02 0.0000000000000000e+00  2.6081730217357612e-02 -6.8066082155403300e-03 0.0000000000000000e+00  2.0887047920390846e-02 -1.8581570360768397e-03 0.0000000000000000e+00  3.1464581724881577e-02 8.2557496420278369e-03 0.0000000000000000e+00  2.7365438233247292e-02 2.8712405071733512e-03 0.0000000000000000e+00  3.0807991865311097e-02 1.5022667460017613e-02 0.0000000000000000e+00  2.9043924311542360e-02 2.0740690336705156e-02 0.0000000000000000e+00  2.6801029916011073e-02 2.5220863662542448e-02 0.0000000000000000e+00  2.4288824796095305e-02 2.8457711488133763e-02 0.0000000000000000e+00  2.1639554813318501e-02 3.0482435731762205e-02 0.0000000000000000e+00  1.8959819942243755e-02 3.1346987507806491e-02 0.0000000000000000e+00  1.6340679367395028e-02 3.1120261781100937e-02 0.0000000000000000e+00  1.3858160136812139e-02 2.9885414836806071e-02 0.0000000000000000e+00  1.1576297161818268e-02 2.7737681788892559e-02 0.0000000000000000e+00  9.5462198054604604e-03 2.4782087512962018e-02 0.0000000000000000e+00  7.8100257127675984e-03 2.1131678529796829e-02 0.0000000000000000e+00  6.3995627337900939e-03 1.6905797662904287e-02 0.0000000000000000e+00  5.3406092683575337e-03 1.2228887782566856e-02 0.0000000000000000e+00  4.6510179985257017e-03 7.2294649276236581e-03 0.0000000000000000e+00  4.3447294588229704e-03 2.0393758161033606e-03 0.0000000000000000e+00  4.4292178370927511e-03 -3.2066729733297309e-03 0.0000000000000000e+00  4.9085382739482136e-03 -8.3716876499132717e-03 0.0000000000000000e+00  5.7803260688794990e-03 -1.3316688068377755e-02 0.0000000000000000e+00  7.0375183881978901e-03 -1.7901483772975572e-02 0.0000000000000000e+00  8.6649942909187080e-03 -2.1985342593147106e-02 0.0000000000000000e+00  1.0639895211070569e-02 -2.5428333397625475e-02 0.0000000000000000e+00  1.2928337646235107e-02 -2.8092840953310980e-02 0.0000000000000000e+00  1.5484859060643412e-02 -2.9845733873623419e-02 0.0000000000000000e+00  1.8249482394864597e-02 -3.0560926315955105e-02 0.0000000000000000e+00  2.1146870513423906e-02 -3.0122425260589177e-02 0.0000000000000000e+00  2.4082967939834981e-02 -2.8427818543530544e-02 0.0000000000000000e+00  2.6937503317863817e-02 -2.5392372136199531e-02 0.0000000000000000e+00  2.9525884447771905e-02 -2.0955742716478772e-02 0.0000000000000000e+00  3.1419715195761762e-02 -1.5105824985367390e-02 0.0000000000000000e+00  3.1186028564090279e-02 -8.0601175075282142e-03 0.0000000000000000e+00  2.4808132153341798e-02 -2.3729759564673687e-03 0.0000000000000000e+00  3.7508515464558488e-02 9.5177010074517961e-03 0.0000000000000000e+00  3.2504242078386439e-02 3.4512677511605843e-03 0.0000000000000000e+00  3.6862299966510373e-02 1.7266468287192010e-02 0.0000000000000000e+00  3.4968539768893539e-02 2.3757714470121944e-02 0.0000000000000000e+00  3.2565014261355399e-02 2.8781664711810876e-02 0.0000000000000000e+00  2.9887509906151494e-02 3.2352302267481772e-02 0.0000000000000000e+00  2.7080047522319031e-02 3.4525759645677119e-02 0.0000000000000000e+00  2.4257485665003308e-02 3.5379796705771009e-02 0.0000000000000000e+00  2.1515095675801177e-02 3.5008301275730909e-02 0.0000000000000000e+00  1.8931795521158569e-02 3.3517865684659288e-02 0.0000000000000000e+00  1.6570687852804512e-02 3.1024752766300599e-02 0.0000000000000000e+00  1.4482287325377681e-02 2.7652526905790613e-02 0.0000000000000000e+00  1.2704597597243553e-02 2.3529863150725094e-02 0.0000000000000000e+00  1.1267706405253309e-02 1.8789258475119721e-02 0.0000000000000000e+00  1.0192520976904772e-02 1.3565816230287931e-02 0.0000000000000000e+00  9.4960973974718092e-03 7.9969774793818282e-03 0.0000000000000000e+00  9.1888289329458989e-03 2.2221506200965240e-03 0.0000000000000000e+00  9.2796252661855941e-03 -3.6169318174221893e-03 0.0000000000000000e+00  9.7716499798309840e-03 -9.3760412957155977e-03 0.0000000000000000e+00  1.0666432398362720e-02 -1.4908053270517578e-02 0.0000000000000000e+00  1.1958980654753737e-02 -2.0062727138010519e-02 0.0000000000000000e+00  1.3639746958420794e-02 -2.4686877437912515e-02 0.0000000000000000e+00  1.5689769785144626e-02 -2.8624800339622097e-02 0.0000000000000000e+00  1.8080571550780890e-02 -3.1719543231015404e-02 0.0000000000000000e+00  2.0769934962075718e-02 -3.3814642167953657e-02 0.0000000000000000e+00  2.3700475976658343e-02 -3.4756809049695241e-02 0.0000000000000000e+00  2.6796365734718896e-02 -3.4399280360455552e-02 0.0000000000000000e+00  2.9960251263933108e-02 -3.2606043444049604e-02 0.0000000000000000e+00  3.3062790330775728e-02 -2.9257154362476615e-02 0.0000000000000000e+00  3.5896653127689825e-02 -2.4257545125543348e-02 0.0000000000000000e+00  3.7956710639585063e-02 -1.7567093065025116e-02 0.0000000000000000e+00  3.7509728051107298e-02 -9.4232453100622851e-03 0.0000000000000000e+00  2.9663593577141972e-02 -2.9289519480910982e-03 0.0000000000000000e+00  4.4816242431730102e-02 1.0874323531857669e-02 0.0000000000000000e+00  3.8657551323719598e-02 4.1014100556178643e-03 0.0000000000000000e+00  4.4222259999976796e-02 1.9664318396017313e-02 0.0000000000000000e+00  4.2214768476111580e-02 2.6963501366530231e-02 0.0000000000000000e+00  3.9674083915719020e-02 3.2541515049064051e-02 0.0000000000000000e+00  3.6868350275927733e-02 3.6436682551804163e-02 0.0000000000000000e+00  3.3954094772600724e-02 3.8735587726572630e-02 0.0000000000000000e+00  3.1052333820775477e-02 3.9547278230242344e-02 0.0000000000000000e+00  2.8260391425277510e-02 3.8995696398860864e-02 0.0000000000000000e+00  2.5655575012817056e-02 3.7215105795091109e-02 0.0000000000000000e+00  2.3297309485335167e-02 3.4346181436046182e-02 0.0000000000000000e+00  2.1229605782269474e-02 3.0533139304592182e-02 0.0000000000000000e+00  1.9484513056178911e-02 2.5921535756367270e-02 0.0000000000000000e+00  1.8083901129431909e-02 2.0656900862444705e-02 0.0000000000000000e+00  1.7043932320737792e-02 1.4884325465662322e-02 0.0000000000000000e+00  1.6374672053181910e-02 8.7483238070736775e-03 0.0000000000000000e+00  1.6085451652779664e-02 2.3938691821902059e-03 0.0000000000000000e+00  1.6181647610083210e-02 -4.0329720360959805e-03 0.0000000000000000e+00  1.6669878891283851e-02 -1.0383250849108473e-02 0.0000000000000000e+00  1.7552692303048338e-02 -1.6504201336868918e-02 0.0000000000000000e+00  1.8832421521232056e-02 -2.2237651304256246e-02 0.0000000000000000e+00  2.0504946851282249e-02 -2.7419275417214797e-02 0.0000000000000000e+00  2.2560816923540037e-02 -3.1878195884694774e-02 0.0000000000000000e+00  2.4979486684706374e-02 -3.5437272894631167e-02 0.0000000000000000e+00  2.7727702333759922e-02 -3.7914670734322406e-02 0.0000000000000000e+00  3.0754735351542248e-02 -3.9126169445035136e-02 0.0000000000000000e+00  3.3989354019977949e-02 -3.8889090744794394e-02 0.0000000000000000e+00  3.7334591085664004e-02 -3.7027212004128042e-02 0.0000000000000000e+00  4.0654763990625245e-02 -3.3377687816388044e-02 0.0000000000000000e+00  4.3718828772020726e-02 -2.7802344395688301e-02 0.0000000000000000e+00  4.5932245346347794e-02 -2.0224972858502499e-02 0.0000000000000000e+00  4.5200845790226055e-02 -1.0900616926931540e-02 0.0000000000000000e+00  3.5551872748372210e-02 -3.5458897017614597e-03 0.0000000000000000e+00  5.3548281145651119e-02 1.2315021526045213e-02 0.0000000000000000e+00  4.5947410766706429e-02 4.8334415836623398e-03 0.0000000000000000e+00  5.3059472350081668e-02 2.2190255141732451e-02 0.0000000000000000e+00  5.0966344820387116e-02 3.0312396706407983e-02 0.0000000000000000e+00  4.8329611117573397e-02 3.6432148099293904e-02 0.0000000000000000e+00  4.5456508389133496e-02 4.0619377531853559e-02 0.0000000000000000e+00  4.2516025712619095e-02 4.2999119353354272e-02 0.0000000000000000e+00  3.9632634038350288e-02 4.3719128004301409e-02 0.0000000000000000e+00  3.6901454620793694e-02 4.2940135698692573e-02 0.0000000000000000e+00  3.4393177645953538e-02 4.0829288071489833e-02 0.0000000000000000e+00  3.2157464931125361e-02 3.7555591704131822e-02 0.0000000000000000e+00  3.0226760906947463e-02 3.3286085924005199e-02 0.0000000000000000e+00  2.8620477447395421e-02 2.8183912780993581e-02 0.0000000000000000e+00  2.7349006846106912e-02 2.2407011972516891e-02 0.0000000000000000e+00  2.6417133273978950e-02 1.6108396009656172e-02 0.0000000000000000e+00  2.5827599419199286e-02 9.4370651057720158e-03 0.0000000000000000e+00  2.5582620971337185e-02 2.5396277235694548e-03 0.0000000000000000e+00  2.5686973852614748e-02 -4.4371349580043492e-03 0.0000000000000000e+00  