<?xml version="1.0"?>
<VTKFile type="UnstructuredGrid"  version="0.1"  >
<UnstructuredGrid>
<Piece  NumberOfPoints="759" NumberOfCells="1408">
<Points>
<DataArray  type="Float64"  NumberOfComponents="3"  format="ascii">0 0.46875 0  0.03125 0.46875 0  0.03125 0.515625 0  0 0.515625 0  0.0625 0.46875 0  0.0625 0.515625 0  0.09375 0.46875 0  0.09375 0.515625 0  0.125 0.46875 0  0.125 0.515625 0  0.15625 0.46875 0  0.15625 0.515625 0  0.1875 0.46875 0  0.1875 0.515625 0  0.21875 0.46875 0  0.21875 0.515625 0  0.25 0.46875 0  0.25 0.515625 0  0.28125 0.46875 0  0.28125 0.515625 0  0.3125 0.46875 0  0.3125 0.515625 0  0.34375 0.46875 0  0.34375 0.515625 0  0.375 0.46875 0  0.375 0.515625 0  0.40625 0.46875 0  0.40625 0.515625 0  0.4375 0.46875 0  0.4375 0.515625 0  0.46875 0.46875 0  0.46875 0.515625 0  0.5 0.46875 0  0.5 0.515625 0  0.53125 0.46875 0  0.53125 0.515625 0  0.5625 0.46875 0  0.5625 0.515625 0  0.59375 0.46875 0  0.59375 0.515625 0  0.625 0.46875 0  0.625 0.515625 0  0.65625 0.46875 0  0.65625 0.515625 0  0.6875 0.46875 0  0.6875 0.515625 0  0.71875 0.46875 0  0.71875 0.515625 0  0.75 0.46875 0  0.75 0.515625 0  0.78125 0.46875 0  0.78125 0.515625 0  0.8125 0.46875 0  0.8125 0.515625 0  0.84375 0.46875 0  0.84375 0.515625 0  0.875 0.46875 0  0.875 0.515625 0  0.90625 0.46875 0  0.90625 0.515625 0  0.9375 0.46875 0  0.9375 0.515625 0  0.96875 0.46875 0  0.96875 0.515625 0  1 0.46875 0  1 0.515625 0  0.03125 0.5625 0  0 0.5625 0  0.0625 0.5625 0  0.09375 0.5625 0  0.125 0.5625 0  0.15625 0.5625 0  0.1875 0.5625 0  0.21875 0.5625 0  0.25 0.5625 0  0.28125 0.5625 0  0.3125 0.5625 0  0.34375 0.5625 0  0.375 0.5625 0  0.40625 0.5625 0  0.4375 0.5625 0  0.46875 0.5625 0  0.5 0.5625 0  0.53125 0.5625 0  0.5625 0.5625 0  0.59375 0.5625 0  0.625 0.5625 0  0.65625 0.5625 0  0.6875 0.5625 0  0.71875 0.5625 0  0.75 0.5625 0  0.78125 0.5625 0  0.8125 0.5625 0  0.84375 0.5625 0  0.875 0.5625 0  0.90625 0.5625 0  0.9375 0.5625 0  0.96875 0.5625 0  1 0.5625 0  0.03125 0.609375 0  0 0.609375 0  0.0625 0.609375 0  0.09375 0.609375 0  0.125 0.609375 0  0.15625 0.609375 0  0.1875 0.609375 0  0.21875 0.609375 0  0.25 0.609375 0  0.28125 0.609375 0  0.3125 0.609375 0  0.34375 0.609375 0  0.375 0.609375 0  0.40625 0.609375 0  0.4375 0.609375 0  0.46875 0.609375 0  0.5 0.609375 0  0.53125 0.609375 0  0.5625 0.609375 0  0.59375 0.609375 0  0.625 0.609375 0  0.65625 0.609375 0  0.6875 0.609375 0  0.71875 0.609375 0  0.75 0.609375 0  0.78125 0.609375 0  0.8125 0.609375 0  0.84375 0.609375 0  0.875 0.609375 0  0.90625 0.609375 0  0.9375 0.609375 0  0.96875 0.609375 0  1 0.609375 0  0.03125 0.65625 0  0 0.65625 0  0.0625 0.65625 0  0.09375 0.65625 0  0.125 0.65625 0  0.15625 0.65625 0  0.1875 0.65625 0  0.21875 0.65625 0  0.25 0.65625 0  0.28125 0.65625 0  0.3125 0.65625 0  0.34375 0.65625 0  0.375 0.65625 0  0.40625 0.65625 0  0.4375 0.65625 0  0.46875 0.65625 0  0.5 0.65625 0  0.53125 0.65625 0  0.5625 0.65625 0  0.59375 0.65625 0  0.625 0.65625 0  0.65625 0.65625 0  0.6875 0.65625 0  0.71875 0.65625 0  0.75 0.65625 0  0.78125 0.65625 0  0.8125 0.65625 0  0.84375 0.65625 0  0.875 0.65625 0  0.90625 0.65625 0  0.9375 0.65625 0  0.96875 0.65625 0  1 0.65625 0  0.03125 0.703125 0  0 0.703125 0  0.0625 0.703125 0  0.09375 0.703125 0  0.125 0.703125 0  0.15625 0.703125 0  0.1875 0.703125 0  0.21875 0.703125 0  0.25 0.703125 0  0.28125 0.703125 0  0.3125 0.703125 0  0.34375 0.703125 0  0.375 0.703125 0  0.40625 0.703125 0  0.4375 0.703125 0  0.46875 0.703125 0  0.5 0.703125 0  0.53125 0.703125 0  0.5625 0.703125 0  0.59375 0.703125 0  0.625 0.703125 0  0.65625 0.703125 0  0.6875 0.703125 0  0.71875 0.703125 0  0.75 0.703125 0  0.78125 0.703125 0  0.8125 0.703125 0  0.84375 0.703125 0  0.875 0.703125 0  0.90625 0.703125 0  0.9375 0.703125 0  0.96875 0.703125 0  1 0.703125 0  0.03125 0.75 0  0 0.75 0  0.0625 0.75 0  0.09375 0.75 0  0.125 0.75 0  0.15625 0.75 0  0.1875 0.75 0  0.21875 0.75 0  0.25 0.75 0  0.28125 0.75 0  0.3125 0.75 0  0.34375 0.75 0  0.375 0.75 0  0.40625 0.75 0  0.4375 0.75 0  0.46875 0.75 0  0.5 0.75 0  0.53125 0.75 0  0.5625 0.75 0  0.59375 0.75 0  0.625 0.75 0  0.65625 0.75 0  0.6875 0.75 0  0.71875 0.75 0  0.75 0.75 0  0.78125 0.75 0  0.8125 0.75 0  0.84375 0.75 0  0.875 0.75 0  0.90625 0.75 0  0.9375 0.75 0  0.96875 0.75 0  1 0.75 0  0.03125 0.796875 0  0 0.796875 0  0.0625 0.796875 0  0.09375 0.796875 0  0.125 0.796875 0  0.15625 0.796875 0  0.1875 0.796875 0  0.21875 0.796875 0  0.25 0.796875 0  0.28125 0.796875 0  0.3125 0.796875 0  0.34375 0.796875 0  0.375 0.796875 0  0.40625 0.796875 0  0.4375 0.796875 0  0.46875 0.796875 0  0.5 0.796875 0  0.53125 0.796875 0  0.5625 0.796875 0  0.59375 0.796875 0  0.625 0.796875 0  0.65625 0.796875 0  0.6875 0.796875 0  0.71875 0.796875 0  0.75 0.796875 0  0.78125 0.796875 0  0.8125 0.796875 0  0.84375 0.796875 0  0.875 0.796875 0  0.90625 0.796875 0  0.9375 0.796875 0  0.96875 0.796875 0  1 0.796875 0  0.03125 0.84375 0  0 0.84375 0  0.0625 0.84375 0  0.09375 0.84375 0  0.125 0.84375 0  0.15625 0.84375 0  0.1875 0.84375 0  0.21875 0.84375 0  0.25 0.84375 0  0.28125 0.84375 0  0.3125 0.84375 0  0.34375 0.84375 0  0.375 0.84375 0  0.40625 0.84375 0  0.4375 0.84375 0  0.46875 0.84375 0  0.5 0.84375 0  0.53125 0.84375 0  0.5625 0.84375 0  0.59375 0.84375 0  0.625 0.84375 0  0.65625 0.84375 0  0.6875 0.84375 0  0.71875 0.84375 0  0.75 0.84375 0  0.78125 0.84375 0  0.8125 0.84375 0  0.84375 0.84375 0  0.875 0.84375 0  0.90625 0.84375 0  0.9375 0.84375 0  0.96875 0.84375 0  1 0.84375 0  0.03125 0.890625 0  0 0.890625 0  0.0625 0.890625 0  0.09375 0.890625 0  0.125 0.890625 0  0.15625 0.890625 0  0.1875 0.890625 0  0.21875 0.890625 0  0.25 0.890625 0  0.28125 0.890625 0  0.3125 0.890625 0  0.34375 0.890625 0  0.375 0.890625 0  0.40625 0.890625 0  0.4375 0.890625 0  0.46875 0.890625 0  0.5 0.890625 0  0.53125 0.890625 0  0.5625 0.890625 0  0.59375 0.890625 0  0.625 0.890625 0  0.65625 0.890625 0  0.6875 0.890625 0  0.71875 0.890625 0  0.75 0.890625 0  0.78125 0.890625 0  0.8125 0.890625 0  0.84375 0.890625 0  0.875 0.890625 0  0.90625 0.890625 0  0.9375 0.890625 0  0.96875 0.890625 0  1 0.890625 0  0.03125 0.9375 0  0 0.9375 0  0.0625 0.9375 0  0.09375 0.9375 0  0.125 0.9375 0  0.15625 0.9375 0  0.1875 0.9375 0  0.21875 0.9375 0  0.25 0.9375 0  0.28125 0.9375 0  0.3125 0.9375 0  0.34375 0.9375 0  0.375 0.9375 0  0.40625 0.9375 0  0.4375 0.9375 0  0.46875 0.9375 0  0.5 0.9375 0  0.53125 0.9375 0  0.5625 0.9375 0  0.59375 0.9375 0  0.625 0.9375 0  0.65625 0.9375 0  0.6875 0.9375 0  0.71875 0.9375 0  0.75 0.9375 0  0.78125 0.9375 0  0.8125 0.9375 0  0.84375 0.9375 0  0.875 0.9375 0  0.90625 0.9375 0  0.9375 0.9375 0  0.96875 0.9375 0  1 0.9375 0  0.03125 0.984375 0  0 0.984375 0  0.0625 0.984375 0  0.09375 0.984375 0  0.125 0.984375 0  0.15625 0.984375 0  0.1875 0.984375 0  0.21875 0.984375 0  0.25 0.984375 0  0.28125 0.984375 0  0.3125 0.984375 0  0.34375 0.984375 0  0.375 0.984375 0  0.40625 0.984375 0  0.4375 0.984375 0  0.46875 0.984375 0  0.5 0.984375 0  0.53125 0.984375 0  0.5625 0.984375 0  0.59375 0.984375 0  0.625 0.984375 0  0.65625 0.984375 0  0.6875 0.984375 0  0.71875 0.984375 0  0.75 0.984375 0  0.78125 0.984375 0  0.8125 0.984375 0  0.84375 0.984375 0  0.875 0.984375 0  0.90625 0.984375 0  0.9375 0.984375 0  0.96875 0.984375 0  1 0.984375 0  0.03125 1.03125 0  0 1.03125 0  0.0625 1.03125 0  0.09375 1.03125 0  0.125 1.03125 0  0.15625 1.03125 0  0.1875 1.03125 0  0.21875 1.03125 0  0.25 1.03125 0  0.28125 1.03125 0  0.3125 1.03125 0  0.34375 1.03125 0  0.375 1.03125 0  0.40625 1.03125 0  0.4375 1.03125 0  0.46875 1.03125 0  0.5 1.03125 0  0.53125 1.03125 0  0.5625 1.03125 0  0.59375 1.03125 0  0.625 1.03125 0  0.65625 1.03125 0  0.6875 1.03125 0  0.71875 1.03125 0  0.75 1.03125 0  0.78125 1.03125 0  0.8125 1.03125 0  0.84375 1.03125 0  0.875 1.03125 0  0.90625 1.03125 0  0.9375 1.03125 0  0.96875 1.03125 0  1 1.03125 0  0.03125 1.078125 0  0 1.078125 0  0.0625 1.078125 0  0.09375 1.078125 0  0.125 1.078125 0  0.15625 1.078125 0  0.1875 1.078125 0  0.21875 1.078125 0  0.25 1.078125 0  0.28125 1.078125 0  0.3125 1.078125 0  0.34375 1.078125 0  0.375 1.078125 0  0.40625 1.078125 0  0.4375 1.078125 0  0.46875 1.078125 0  0.5 1.078125 0  0.53125 1.078125 0  0.5625 1.078125 0  0.59375 1.078125 0  0.625 1.078125 0  0.65625 1.078125 0  0.6875 1.078125 0  0.71875 1.078125 0  0.75 1.078125 0  0.78125 1.078125 0  0.8125 1.078125 0  0.84375 1.078125 0  0.875 1.078125 0  0.90625 1.078125 0  0.9375 1.078125 0  0.96875 1.078125 0  1 1.078125 0  0.03125 1.125 0  0 1.125 0  0.0625 1.125 0  0.09375 1.125 0  0.125 1.125 0  0.15625 1.125 0  0.1875 1.125 0  0.21875 1.125 0  0.25 1.125 0  0.28125 1.125 0  0.3125 1.125 0  0.34375 1.125 0  0.375 1.125 0  0.40625 1.125 0  0.4375 1.125 0  0.46875 1.125 0  0.5 1.125 0  0.53125 1.125 0  0.5625 1.125 0  0.59375 1.125 0  0.625 1.125 0  0.65625 1.125 0  0.6875 1.125 0  0.71875 1.125 0  0.75 1.125 0  0.78125 1.125 0  0.8125 1.125 0  0.84375 1.125 0  0.875 1.125 0  0.90625 1.125 0  0.9375 1.125 0  0.96875 1.125 0  1 1.125 0  0.03125 1.171875 0  0 1.171875 0  0.0625 1.171875 0  0.09375 1.171875 0  0.125 1.171875 0  0.15625 1.171875 0  0.1875 1.171875 0  0.21875 1.171875 0  0.25 1.171875 0  0.28125 1.171875 0  0.3125 1.171875 0  0.34375 1.171875 0  0.375 1.171875 0  0.40625 1.171875 0  0.4375 1.171875 0  0.46875 1.171875 0  0.5 1.171875 0  0.53125 1.171875 0  0.5625 1.171875 0  0.59375 1.171875 0  0.625 1.171875 0  0.65625 1.171875 0  0.6875 1.171875 0  0.71875 1.171875 0  0.75 1.171875 0  0.78125 1.171875 0  0.8125 1.171875 0  0.84375 1.171875 0  0.875 1.171875 0  0.90625 1.171875 0  0.9375 1.171875 0  0.96875 1.171875 0  1 1.171875 0  0.03125 1.21875 0  0 1.21875 0  0.0625 1.21875 0  0.09375 1.21875 0  0.125 1.21875 0  0.15625 1.21875 0  0.1875 1.21875 0  0.21875 1.21875 0  0.25 1.21875 0  0.28125 1.21875 0  0.3125 1.21875 0  0.34375 1.21875 0  0.375 1.21875 0  0.40625 1.21875 0  0.4375 1.21875 0  0.46875 1.21875 0  0.5 1.21875 0  0.53125 1.21875 0  0.5
[...]
<PointData  Vectors="u"> 
<DataArray  type="Float64"  Name="u"  NumberOfComponents="3" format="ascii">1.4110480457973971e-02 7.1461450513514099e-04 0.0000000000000000e+00  1.6269720940549487e-02 3.9879480283208169e-03 0.0000000000000000e+00  1.7900789693904878e-02 4.2701042460743018e-03 0.0000000000000000e+00  1.5331421986653179e-02 9.3253260209631402e-04 0.0000000000000000e+00  1.5718148797540563e-02 7.2620442394056217e-03 0.0000000000000000e+00  1.7514826663927785e-02 7.8576467152731751e-03 0.0000000000000000e+00  1.4626760628672585e-02 1.0190071293148173e-02 0.0000000000000000e+00  1.6209787274074957e-02 1.1028129175751921e-02 0.0000000000000000e+00  1.3197216064834672e-02 1.2652583925345698e-02 0.0000000000000000e+00  1.4549474273167034e-02 1.3670076090956017e-02 0.0000000000000000e+00  1.1537501820122946e-02 1.4583881708911962e-02 0.0000000000000000e+00  1.2687132397623996e-02 1.5721933049838231e-02 0.0000000000000000e+00  9.7373053290112747e-03 1.5939695850996097e-02 0.0000000000000000e+00  1.0711872162240012e-02 1.7145356472155062e-02 0.0000000000000000e+00  7.8749179728186906e-03 1.6695995672071150e-02 0.0000000000000000e+00  8.6987006400113809e-03 1.7922395207636468e-02 0.0000000000000000e+00  6.0193069801260631e-03 1.6848701316915078e-02 0.0000000000000000e+00  6.7136003372023452e-03 1.8054553665872216e-02 0.0000000000000000e+00  4.2310844050356200e-03 1.6412466497912573e-02 0.0000000000000000e+00  4.8144503522411690e-03 1.7561662244614574e-02 0.0000000000000000e+00  2.5631062555962441e-03 1.5419052654858769e-02 0.0000000000000000e+00  3.0518402546235567e-03 1.6480241714690345e-02 0.0000000000000000e+00  1.0609782366935276e-03 1.3915378230299383e-02 0.0000000000000000e+00  1.4692747029607541e-03 1.4861695913933349e-02 0.0000000000000000e+00  -2.3657769087467859e-04 1.1961540226144984e-02 0.0000000000000000e+00  1.0373176022688218e-04 1.2770307729200825e-02 0.0000000000000000e+00  -1.2973373483081093e-03 9.6287349760331709e-03 0.0000000000000000e+00  -1.0141781543550211e-03 1.0281290416671135e-02 0.0000000000000000e+00  -2.0953521732673111e-03 6.9972672867278573e-03 0.0000000000000000e+00  -1.8598775999549319e-03 7.4787788389921468e-03 0.0000000000000000e+00  -2.6107445996267492e-03 4.1545255774101675e-03 0.0000000000000000e+00  -2.4147844403682476e-03 4.4539316105666853e-03 0.0000000000000000e+00  -2.8295867064176859e-03 1.1930415086125858e-03 0.0000000000000000e+00  -2.6660980423329657e-03 1.3029932546970275e-03 0.0000000000000000e+00  -2.7438368578124595e-03 -1.7914846326203254e-03 0.0000000000000000e+00  -2.6069027374427205e-03 -1.8745598048712376e-03 0.0000000000000000e+00  -2.3513995641189296e-03 -4.7021318022528692e-03 0.0000000000000000e+00  -2.2361992723736483e-03 -4.9779449604389009e-03 0.0000000000000000e+00  -1.6562173086579783e-03 -7.4427870301425362e-03 0.0000000000000000e+00  -1.5591425582577858e-03 -7.9069953337204575e-03 0.0000000000000000e+00  -6.6844332620562405e-04 -9.9202164774059402e-03 0.0000000000000000e+00  -5.8722840242763350e-04 -1.0564206790383427e-02 0.0000000000000000e+00  5.9532657863434711e-04 -1.2046271700540182e-02 0.0000000000000000e+00  6.6127553931184346e-04 -1.2856856186816782e-02 0.0000000000000000e+00  2.1117528775141093e-03 -1.3740182309228344e-02 0.0000000000000000e+00  2.1609819770647756e-03 -1.4699289197007279e-02 0.0000000000000000e+00  3.8505019704177298e-03 -1.4931009772374266e-02 0.0000000000000000e+00  3.8788921517947418e-03 -1.6015310400403091e-02 0.0000000000000000e+00  5.7739527043439735e-03 -1.5560176386002860e-02 0.0000000000000000e+00  5.7740273273548769e-03 -1.6740733127580638e-02 0.0000000000000000e+00  7.8369700609946906e-03 -1.5584102991246055e-02 0.0000000000000000e+00  7.7969184737634468e-03 -1.6825974981078611e-02 0.0000000000000000e+00  9.9865204307462221e-03 -1.4976841902079570e-02 0.0000000000000000e+00  9.8892174580875927e-03 -1.6238701025412371e-02 0.0000000000000000e+00  1.2160439117388993e-02 -1.3732718576061387e-02 0.0000000000000000e+00  1.1982529575774829e-02 -1.4966365882940138e-02 0.0000000000000000e+00  1.4281820519184531e-02 -1.1869039286248493e-02 0.0000000000000000e+00  1.3994419615699465e-02 -1.3018711416485314e-02 0.0000000000000000e+00  1.6232779641062640e-02 -9.4299017111476192e-03 0.0000000000000000e+00  1.5809410684147589e-02 -1.0430795498933502e-02 0.0000000000000000e+00  1.7735339096245275e-02 -6.4977901966318625e-03 0.0000000000000000e+00  1.7192681508183913e-02 -7.2715838274108220e-03 0.0000000000000000e+00  1.7911040273097360e-02 -3.2653950805779045e-03 0.0000000000000000e+00  1.7444466764705530e-02 -3.6968010082328614e-03 0.0000000000000000e+00  1.5177128453569243e-02 -3.0014550724626196e-04 0.0000000000000000e+00  1.4578495500746899e-02 -4.1163606188445687e-04 0.0000000000000000e+00  1.9801633430030861e-02 5.0649448343599414e-03 0.0000000000000000e+00  1.7164069205573465e-02 1.3985234282370509e-03 0.0000000000000000e+00  1.9295187009148392e-02 9.3092836703903073e-03 0.0000000000000000e+00  1.7916802166901197e-02 1.3007099549911562e-02 0.0000000000000000e+00  1.6148443519567589e-02 1.6031484057493776e-02 0.0000000000000000e+00  1.4159496828762190e-02 1.8333931115861020e-02 0.0000000000000000e+00  1.2052340014309340e-02 1.9890050419923137e-02 0.0000000000000000e+00  9.9082700328310194e-03 2.0695168269589788e-02 0.0000000000000000e+00  7.7974373222382196e-03 2.0763403298840025e-02 0.0000000000000000e+00  5.7813604077351418e-03 2.0126364354340152e-02 0.0000000000000000e+00  3.9130950143025905e-03 1.8831637363299476e-02 0.0000000000000000e+00  2.2382262083251647e-03 1.6940925194685048e-02 0.0000000000000000e+00  7.9492710377319930e-04 1.4528239484609677e-02 0.0000000000000000e+00  -3.8514822960188555e-04 1.1677924533528063e-02 0.0000000000000000e+00  -1.2769339371618714e-03 8.4828900868542997e-03 0.0000000000000000e+00  -1.8612972660330264e-03 5.0427295862029943e-03 0.0000000000000000e+00  -2.1251515962796828e-03 1.4620580800515414e-03 0.0000000000000000e+00  -2.0611614202420015e-03 -2.1512782804333570e-03 0.0000000000000000e+00  -1.6680750364483174e-03 -5.6878478737263640e-03 0.0000000000000000e+00  -9.5070582885576369e-04 -9.0384644519921793e-03 0.0000000000000000e+00  7.9516350761096670e-05 -1.2095986558114290e-02 0.0000000000000000e+00  1.4042584855184031e-03 -1.4757353473057840e-02 0.0000000000000000e+00  2.9974978493686544e-03 -1.6925686182446355e-02 0.0000000000000000e+00  4.8251369289316276e-03 -1.8512640233736617e-02 0.0000000000000000e+00  6.8441294298138547e-03 -1.9440836655835944e-02 0.0000000000000000e+00  9.0020705041068093e-03 -1.9646466236481835e-02 0.0000000000000000e+00  1.1236322496553897e-02 -1.9081847060459765e-02 0.0000000000000000e+00  1.3472939271819735e-02 -1.7717940534110209e-02 0.0000000000000000e+00  1.5621905930280873e-02 -1.5546688458870774e-02 0.0000000000000000e+00  1.7556131192923416e-02 -1.2583964937781087e-02 0.0000000000000000e+00  1.9012274572457334e-02 -8.8793755622095325e-03 0.0000000000000000e+00  1.9172930687992643e-02 -4.5925858072678747e-03 0.0000000000000000e+00  1.5669508732800690e-02 -8.5882397549011803e-04 0.0000000000000000e+00  2.2677222875740127e-02 6.0270439296123664e-03 0.0000000000000000e+00  1.9750714179420096e-02 1.8641945271240857e-03 0.0000000000000000e+00  2.2092609647943330e-02 1.1036476642766033e-02 0.0000000000000000e+00  2.0594876342758132e-02 1.5351846934215133e-02 0.0000000000000000e+00  1.8682845062965265e-02 1.8824877154052171e-02 0.0000000000000000e+00  1.6533481082222381e-02 2.1419514495876483e-02 0.0000000000000000e+00  1.4256754666189616e-02 2.3127516256914688e-02 0.0000000000000000e+00  1.1941875179736666e-02 2.3960455246951808e-02 0.0000000000000000e+00  9.6661101644577897e-03 2.3947948015644288e-02 0.0000000000000000e+00  7.4958044150109778e-03 2.3136237679364995e-02 0.0000000000000000e+00  5.4883105748039203e-03 2.1586489157726405e-02 0.0000000000000000e+00  3.6916124578465293e-03 1.9373046107047886e-02 0.0000000000000000e+00  2.1461182231153489e-03 1.6581511430232437e-02 0.0000000000000000e+00  8.8433457490726878e-04 1.3307051251358093e-02 0.0000000000000000e+00  -6.7600522028740104e-05 9.6525788934256236e-03 0.0000000000000000e+00  -6.9029662978688981e-04 5.7272852687468177e-03 0.0000000000000000e+00  -9.6994693064001119e-04 1.6449948036776478e-03 0.0000000000000000e+00  -8.9892370315958518e-04 -2.4771404521537802e-03 0.0000000000000000e+00  -4.7519133440394147e-04 -6.5202105485335513e-03 0.0000000000000000e+00  2.9687212444258390e-04 -1.0364900308566212e-02 0.0000000000000000e+00  1.4065450915170233e-03 -1.3893188436900284e-02 0.0000000000000000e+00  2.8355852938339245e-03 -1.6989990836953597e-02 0.0000000000000000e+00  4.5579059749008988e-03 -1.9545182990601106e-02 0.0000000000000000e+00  6.5382175735761621e-03 -2.1455696761135311e-02 0.0000000000000000e+00  8.7315505195806158e-03 -2.2627945718878554e-02 0.0000000000000000e+00  1.1081875636345252e-02 -2.2980326410900850e-02 0.0000000000000000e+00  1.3521651032343540e-02 -2.2445868796575581e-02 0.0000000000000000e+00  1.5969792825661393e-02 -2.0974802912962606e-02 0.0000000000000000e+00  1.8326650235291213e-02 -1.8537162108003699e-02 0.0000000000000000e+00  2.0448261153642167e-02 -1.5126408569771318e-02 0.0000000000000000e+00  2.2026230111856167e-02 -1.0773058543275458e-02 0.0000000000000000e+00  2.2078408330817343e-02 -5.6539850032431074e-03 0.0000000000000000e+00  1.7829847297525969e-02 -1.3598911396598063e-03 0.0000000000000000e+00  2.6547290860172320e-02 7.0917536260777141e-03 0.0000000000000000e+00  2.3135626545157113e-02 2.3480350180941152e-03 0.0000000000000000e+00  2.5912549669147102e-02 1.2943530695743723e-02 0.0000000000000000e+00  2.4283475789531623e-02 1.7933658678634942e-02 0.0000000000000000e+00  2.2208846153902936e-02 2.1893412995069882e-02 0.0000000000000000e+00  1.9878776919868245e-02 2.4801098068027043e-02 0.0000000000000000e+00  1.7413526558348651e-02 2.6666771616096180e-02 0.0000000000000000e+00  1.4911656175126091e-02 2.7520700826521929e-02 0.0000000000000000e+00  1.2456941335394484e-02 2.7410593782297779e-02 0.0000000000000000e+00  1.0121865908192187e-02 2.6399760089829492e-02 0.0000000000000000e+00  7.9669331733741994e-03 2.4565167332602493e-02 0.0000000000000000e+00  6.0433244402364082e-03 2.1995549216233923e-02 0.0000000000000000e+00  4.3921074371838604e-03 1.8789562088978428e-02 0.0000000000000000e+00  3.0471309346872936e-03 1.5054054157083394e-02 0.0000000000000000e+00  2.0340428826538188e-03 1.0902618149882089e-02 0.0000000000000000e+00  1.3729101799133437e-03 6.4541517889897477e-03 0.0000000000000000e+00  1.0770791687095189e-03 1.8318230986007023e-03 0.0000000000000000e+00  1.1551000794001575e-03 -2.8381631717660440e-03 0.0000000000000000e+00  1.6092208394155277e-03 -7.4274005184015402e-03 0.0000000000000000e+00  2.4364924980121057e-03 -1.1806527568637462e-02 0.0000000000000000e+00  3.6269262374346955e-03 -1.5846230333208984e-02 0.0000000000000000e+00  5.1637057111587397e-03 -1.9418773100210035e-02 0.0000000000000000e+00  7.0210254648270841e-03 -2.2399512480801947e-02 0.0000000000000000e+00  9.1638051197645946e-03 -2.4668930961404198e-02 0.0000000000000000e+00  1.1545463268939366e-02 -2.6114836499091815e-02 0.0000000000000000e+00  1.4107412796210143e-02 -2.6634948497085930e-02 0.0000000000000000e+00  1.6777102885262074e-02 -2.6139655085074927e-02 0.0000000000000000e+00  1.9466644751378503e-02 -2.4554939713312691e-02 0.0000000000000000e+00  2.2065710661740432e-02 -2.1825580472197438e-02 0.0000000000000000e+00  2.4411175370561991e-02 -1.7920090438447136e-02 0.0000000000000000e+00  2.6139732601789971e-02 -1.2849151419695875e-02 0.0000000000000000e+00  2.6066779606272746e-02 -6.8096842006341611e-03 0.0000000000000000e+00  2.0875545794348076e-02 -1.8582346101737705e-03 0.0000000000000000e+00  3.1458107183164392e-02 8.2549763314596243e-03 0.0000000000000000e+00  2.7360934919237034e-02 2.8715639140526475e-03 0.0000000000000000e+00  3.0801003281399494e-02 1.5020948651495435e-02 0.0000000000000000e+00  2.9036701022351744e-02 2.0737897660273206e-02 0.0000000000000000e+00  2.6793556798096408e-02 2.5216863680120102e-02 0.0000000000000000e+00  2.4281041361511147e-02 2.8452386388098674e-02 0.0000000000000000e+00  2.1631403920549675e-02 3.0475686700353277e-02 0.0000000000000000e+00  1.8951255291580038e-02 3.1338736759557118e-02 0.0000000000000000e+00  1.6331665519730330e-02 3.1110454535543307e-02 0.0000000000000000e+00  1.3848671492109608e-02 2.9874021281117647e-02 0.0000000000000000e+00  1.1566316994878754e-02 2.7724698914467997e-02 0.0000000000000000e+00  9.5357395373861040e-03 2.4767540713986048e-02 0.0000000000000000e+00  7.7990443141112090e-03 2.1115622866740295e-02 0.0000000000000000e+00  6.3880862567508561e-03 1.6888318711475534e-02 0.0000000000000000e+00  5.3286504043869023e-03 1.2210102001535749e-02 0.0000000000000000e+00  4.6385956577433326e-03 7.2095194949933728e-03 0.0000000000000000e+00  4.3318682603102577e-03 2.0184478959592335e-03 0.0000000000000000e+00  4.4159475556705815e-03 -3.2283775638886087e-03 0.0000000000000000e+00  4.8948931501889368e-03 -8.3939363895353981e-03 0.0000000000000000e+00  5.7663439978493138e-03 -1.3339224301847748e-02 0.0000000000000000e+00  7.0232399217723673e-03 -1.7924029897362224e-02 0.0000000000000000e+00  8.6504614991312519e-03 -2.2007603849677759e-02 0.0000000000000000e+00  1.0625150356499021e-02 -2.5450002230362149e-02 0.0000000000000000e+00  1.2913421664798147e-02 -2.8113601897755337e-02 0.0000000000000000e+00  1.5469809858409395e-02 -2.9865268911858471e-02 0.0000000000000000e+00  1.8234332995710624e-02 -3.0578920616758560e-02 0.0000000000000000e+00  2.1131647023317067e-02 -3.0138573205341235e-02 0.0000000000000000e+00  2.4067687695368416e-02 -2.8441829923960035e-02 0.0000000000000000e+00  2.6922174765702505e-02 -2.5403978406199634e-02 0.0000000000000000e+00  2.9510517967523128e-02 -2.0964703257601344e-02 0.0000000000000000e+00  3.1404395402443060e-02 -1.5111934017065868e-02 0.0000000000000000e+00  3.1171309086323651e-02 -8.0632187763205777e-03 0.0000000000000000e+00  2.4796788869692728e-02 -2.3730749624153386e-03 0.0000000000000000e+00  3.7502759131356728e-02 9.5170685795383167e-03 0.0000000000000000e+00  3.2500305974619476e-02 3.4516140578887819e-03 0.0000000000000000e+00  3.6856060999309298e-02 1.7265019664723887e-02 0.0000000000000000e+00  3.4962078860608245e-02 2.3755305694116970e-02 0.0000000000000000e+00  3.2558313808872891e-02 2.8778145505657039e-02 0.0000000000000000e+00  2.9880507993641281e-02 3.2347539097877548e-02 0.0000000000000000e+00  2.7072684609105134e-02 3.4519639275479054e-02 0.0000000000000000e+00  2.4249712086260602e-02 3.5372228054277810e-02 0.0000000000000000e+00  2.1506871969510562e-02 3.4999217177093783e-02 0.0000000000000000e+00  1.8923091663099564e-02 3.3507224641215055e-02 0.0000000000000000e+00  1.6561482528692145e-02 3.1012540614852400e-02 0.0000000000000000e+00  1.4472567365570925e-02 2.7638758294088062e-02 0.0000000000000000e+00  1.2694357553140172e-02 2.3514582732459256e-02 0.0000000000000000e+00  1.1256948193244781e-02 1.8772541743805143e-02 0.0000000000000000e+00  1.0181253589196346e-02 1.3547769926041682e-02 0.0000000000000000e+00  9.4843365541383007e-03 7.9777395105949372e-03 0.0000000000000000e+00  9.1765967076706707e-03 2.2018894612779185e-03 0.0000000000000000e+00  9.2669495799801802e-03 -3.6380182901843343e-03 0.0000000000000000e+00  9.7585640180551294e-03 -9.3977275542685441e-03 0.0000000000000000e+00  1.0652973808222216e-02 -1.4930088485584980e-02 0.0000000000000000e+00  1.1945190602178586e-02 -2.0084838135184857e-02 0.0000000000000000e+00  1.3625668963768368e-02 -2.4708772258140214e-02 0.0000000000000000e+00  1.5675448376010134e-02 -2.8646172389287065e-02 0.0000000000000000e+00  1.8066050661127642e-02 -3.1740075984976031e-02 0.0000000000000000e+00  2.0755256150655616e-02 -3.3834014386777862e-02 0.0000000000000000e+00  2.3685676436392099e-02 -3.4774700441074988e-02 0.0000000000000000e+00  2.6781476112362899e-02 -3.4415377594014702e-02 0.0000000000000000e+00  2.9945293618464798e-02 -3.2620046410534592e-02 0.0000000000000000e+00  3.3047777735775836e-02 -2.9268782561309860e-02 0.0000000000000000e+00  3.5881599747731481e-02 -2.4266544146366115e-02 0.0000000000000000e+00  3.7941701030044232e-02 -1.7573241922247552e-02 0.0000000000000000e+00  3.7495298909365468e-02 -9.4263732638621700e-03 0.0000000000000000e+00  2.9652450227416718e-02 -2.9290756766537952e-03 0.0000000000000000e+00  4.4811260167443981e-02 1.0873821468390268e-02 0.0000000000000000e+00  3.8654218850083764e-02 4.1017722309681986e-03 0.0000000000000000e+00  4.4216833222567226e-02 1.9663122585436701e-02 0.0000000000000000e+00  4.2209136906423673e-02 2.6961455347746625e-02 0.0000000000000000e+00  3.9668228315494519e-02 3.2538454851143823e-02 0.0000000000000000e+00  3.6862208552621949e-02 3.6432461500489038e-02 0.0000000000000000e+00  3.3947605973256273e-02 3.8730080146786708e-02 0.0000000000000000e+00  3.1045445526040640e-02 3.9540381213640903e-02 0.0000000000000000e+00  2.8253060357912373e-02 3.8987331422380277e-02 0.0000000000000000e+00  2.5647766577780416e-02 3.7205220334785558e-02 0.0000000000000000e+00  2.3288997299852707e-02 3.4334750516822096e-02 0.0000000000000000e+00  2.1220771345484210e-02 3.0520166893662281e-02 0.0000000000000000e+00  1.9475145518667449e-02 2.5907055920119982e-02 0.0000000000000000e+00  1.8073997133800996e-02 2.0640978607650844e-02 0.0000000000000000e+00  1.7033495851501088e-02 1.4867057200656911e-02 0.0000000000000000e+00  1.6363714278519213e-02 8.7298373706320067e-03 0.0000000000000000e+00  1.6073990649679730e-02 2.3743233877939868e-03 0.0000000000000000e+00  1.6169708030719352e-02 -4.0533883701838296e-03 0.0000000000000000e+00  1.6657491446344042e-02 -1.0404320423694347e-02 0.0000000000000000e+00  1.7539893101888752e-02 -1.6525680464151524e-02 0.0000000000000000e+00  1.8819251148452738e-02 -2.2259272593017604e-02 0.0000000000000000e+00  2.0491449278504294e-02 -2.7440751053708995e-02 0.0000000000000000e+00  2.2547038138094676e-02 -3.1899221512850434e-02 0.0000000000000000e+00  2.4965473067823547e-02 -3.5457532081022945e-02 0.0000000000000000e+00  2.7713498788862478e-02 -3.7933839985064971e-02 0.0000000000000000e+00  3.0740383209399459e-02 -3.9143923731136565e-02 0.0000000000000000e+00  3.3974888706443940e-02 -3.8905109453399145e-02 0.0000000000000000e+00  3.7320039889763956e-02 -3.7041185219956432e-02 0.0000000000000000e+00  4.0640145367100020e-02 -3.3389322819028032e-02 0.0000000000000000e+00  4.3704161608029403e-02 -2.7811372355705733e-02 0.0000000000000000e+00  4.5917614867749527e-02 -2.0231156629603269e-02 0.0000000000000000e+00  4.5186770169994388e-02 -1.0903770126883294e-02 0.0000000000000000e+00  3.5540974246960608e-02 -3.5460400438117609e-03 0.0000000000000000e+00  5.3544113451377502e-02 1.2314636270528130e-02 0.0000000000000000e+00  4.5944706397478767e-02 4.8338125655549820e-03 0.0000000000000000e+00  5.3054904544647674e-02 2.2189289129275216e-02 0.0000000000000000e+00  5.0961594034365391e-02 3.0310684386517017e-02 0.0000000000000000e+00  4.8324657435726066e-02 3.6429515303412617e-02 0.0000000000000000e+00  4.5451290833349603e-02 4.0615667467829165e-02 0.0000000000000000e+00  4.2510482978335151e-02 4.2994196395837139e-02 0.0000000000000000e+00  3.9626711676517608e-02 4.3712879402924322e-02 0.0000000000000000e+00  3.6895105907668410e-02 4.2932473102716306e-02 0.0000000000000000e+00  3.4386363433840883e-02 4.0820149054138749e-02 0.0000000000000000e+00  3.2150153468981715e-02 3.7544941236036584e-02 0.0000000000000000e+00  3.0218927766264711e-02 3.3273917721726276e-02 0.0000000000000000e+00  2.8612105528743829e-02 2.8170250447936505e-02 0.0000000000000000e+00  2.7340086435571873e-02 2.2391909871266991e-02 0.0000000000000000e+00  2.6407662105167363e-02 1.6091939793840597e-02 0.0000000000000000e+00  2.5817582694394509e-02 9.4193718674284443e-03 0.0000000000000000e+00  2.5572071297114495e-02 2.5208457074161052e-03 0.0000000000000000e+00  2.5675911050950320e-02 -4.4568271168107043e-03 0.0000000000000000e+00  