<?xml version="1.0"?>
<VTKFile type="UnstructuredGrid"  version="0.1"  >
<UnstructuredGrid>
<Piece  NumberOfPoints="759" NumberOfCells="1408">
<Points>
<DataArray  type="Float64"  NumberOfComponents="3"  format="ascii">0 0.46875 0  0.03125 0.46875 0  0.03125 0.515625 0  0 0.515625 0  0.0625 0.46875 0  0.0625 0.515625 0  0.09375 0.46875 0  0.09375 0.515625 0  0.125 0.46875 0  0.125 0.515625 0  0.15625 0.46875 0  0.15625 0.515625 0  0.1875 0.46875 0  0.1875 0.515625 0  0.21875 0.46875 0  0.21875 0.515625 0  0.25 0.46875 0  0.25 0.515625 0  0.28125 0.46875 0  0.28125 0.515625 0  0.3125 0.46875 0  0.3125 0.515625 0  0.34375 0.46875 0  0.34375 0.515625 0  0.375 0.46875 0  0.375 0.515625 0  0.40625 0.46875 0  0.40625 0.515625 0  0.4375 0.46875 0  0.4375 0.515625 0  0.46875 0.46875 0  0.46875 0.515625 0  0.5 0.46875 0  0.5 0.515625 0  0.53125 0.46875 0  0.53125 0.515625 0  0.5625 0.46875 0  0.5625 0.515625 0  0.59375 0.46875 0  0.59375 0.515625 0  0.625 0.46875 0  0.625 0.515625 0  0.65625 0.46875 0  0.65625 0.515625 0  0.6875 0.46875 0  0.6875 0.515625 0  0.71875 0.46875 0  0.71875 0.515625 0  0.75 0.46875 0  0.75 0.515625 0  0.78125 0.46875 0  0.78125 0.515625 0  0.8125 0.46875 0  0.8125 0.515625 0  0.84375 0.46875 0  0.84375 0.515625 0  0.875 0.46875 0  0.875 0.515625 0  0.90625 0.46875 0  0.90625 0.515625 0  0.9375 0.46875 0  0.9375 0.515625 0  0.96875 0.46875 0  0.96875 0.515625 0  1 0.46875 0  1 0.515625 0  0.03125 0.5625 0  0 0.5625 0  0.0625 0.5625 0  0.09375 0.5625 0  0.125 0.5625 0  0.15625 0.5625 0  0.1875 0.5625 0  0.21875 0.5625 0  0.25 0.5625 0  0.28125 0.5625 0  0.3125 0.5625 0  0.34375 0.5625 0  0.375 0.5625 0  0.40625 0.5625 0  0.4375 0.5625 0  0.46875 0.5625 0  0.5 0.5625 0  0.53125 0.5625 0  0.5625 0.5625 0  0.59375 0.5625 0  0.625 0.5625 0  0.65625 0.5625 0  0.6875 0.5625 0  0.71875 0.5625 0  0.75 0.5625 0  0.78125 0.5625 0  0.8125 0.5625 0  0.84375 0.5625 0  0.875 0.5625 0  0.90625 0.5625 0  0.9375 0.5625 0  0.96875 0.5625 0  1 0.5625 0  0.03125 0.609375 0  0 0.609375 0  0.0625 0.609375 0  0.09375 0.609375 0  0.125 0.609375 0  0.15625 0.609375 0  0.1875 0.609375 0  0.21875 0.609375 0  0.25 0.609375 0  0.28125 0.609375 0  0.3125 0.609375 0  0.34375 0.609375 0  0.375 0.609375 0  0.40625 0.609375 0  0.4375 0.609375 0  0.46875 0.609375 0  0.5 0.609375 0  0.53125 0.609375 0  0.5625 0.609375 0  0.59375 0.609375 0  0.625 0.609375 0  0.65625 0.609375 0  0.6875 0.609375 0  0.71875 0.609375 0  0.75 0.609375 0  0.78125 0.609375 0  0.8125 0.609375 0  0.84375 0.609375 0  0.875 0.609375 0  0.90625 0.609375 0  0.9375 0.609375 0  0.96875 0.609375 0  1 0.609375 0  0.03125 0.65625 0  0 0.65625 0  0.0625 0.65625 0  0.09375 0.65625 0  0.125 0.65625 0  0.15625 0.65625 0  0.1875 0.65625 0  0.21875 0.65625 0  0.25 0.65625 0  0.28125 0.65625 0  0.3125 0.65625 0  0.34375 0.65625 0  0.375 0.65625 0  0.40625 0.65625 0  0.4375 0.65625 0  0.46875 0.65625 0  0.5 0.65625 0  0.53125 0.65625 0  0.5625 0.65625 0  0.59375 0.65625 0  0.625 0.65625 0  0.65625 0.65625 0  0.6875 0.65625 0  0.71875 0.65625 0  0.75 0.65625 0  0.78125 0.65625 0  0.8125 0.65625 0  0.84375 0.65625 0  0.875 0.65625 0  0.90625 0.65625 0  0.9375 0.65625 0  0.96875 0.65625 0  1 0.65625 0  0.03125 0.703125 0  0 0.703125 0  0.0625 0.703125 0  0.09375 0.703125 0  0.125 0.703125 0  0.15625 0.703125 0  0.1875 0.703125 0  0.21875 0.703125 0  0.25 0.703125 0  0.28125 0.703125 0  0.3125 0.703125 0  0.34375 0.703125 0  0.375 0.703125 0  0.40625 0.703125 0  0.4375 0.703125 0  0.46875 0.703125 0  0.5 0.703125 0  0.53125 0.703125 0  0.5625 0.703125 0  0.59375 0.703125 0  0.625 0.703125 0  0.65625 0.703125 0  0.6875 0.703125 0  0.71875 0.703125 0  0.75 0.703125 0  0.78125 0.703125 0  0.8125 0.703125 0  0.84375 0.703125 0  0.875 0.703125 0  0.90625 0.703125 0  0.9375 0.703125 0  0.96875 0.703125 0  1 0.703125 0  0.03125 0.75 0  0 0.75 0  0.0625 0.75 0  0.09375 0.75 0  0.125 0.75 0  0.15625 0.75 0  0.1875 0.75 0  0.21875 0.75 0  0.25 0.75 0  0.28125 0.75 0  0.3125 0.75 0  0.34375 0.75 0  0.375 0.75 0  0.40625 0.75 0  0.4375 0.75 0  0.46875 0.75 0  0.5 0.75 0  0.53125 0.75 0  0.5625 0.75 0  0.59375 0.75 0  0.625 0.75 0  0.65625 0.75 0  0.6875 0.75 0  0.71875 0.75 0  0.75 0.75 0  0.78125 0.75 0  0.8125 0.75 0  0.84375 0.75 0  0.875 0.75 0  0.90625 0.75 0  0.9375 0.75 0  0.96875 0.75 0  1 0.75 0  0.03125 0.796875 0  0 0.796875 0  0.0625 0.796875 0  0.09375 0.796875 0  0.125 0.796875 0  0.15625 0.796875 0  0.1875 0.796875 0  0.21875 0.796875 0  0.25 0.796875 0  0.28125 0.796875 0  0.3125 0.796875 0  0.34375 0.796875 0  0.375 0.796875 0  0.40625 0.796875 0  0.4375 0.796875 0  0.46875 0.796875 0  0.5 0.796875 0  0.53125 0.796875 0  0.5625 0.796875 0  0.59375 0.796875 0  0.625 0.796875 0  0.65625 0.796875 0  0.6875 0.796875 0  0.71875 0.796875 0  0.75 0.796875 0  0.78125 0.796875 0  0.8125 0.796875 0  0.84375 0.796875 0  0.875 0.796875 0  0.90625 0.796875 0  0.9375 0.796875 0  0.96875 0.796875 0  1 0.796875 0  0.03125 0.84375 0  0 0.84375 0  0.0625 0.84375 0  0.09375 0.84375 0  0.125 0.84375 0  0.15625 0.84375 0  0.1875 0.84375 0  0.21875 0.84375 0  0.25 0.84375 0  0.28125 0.84375 0  0.3125 0.84375 0  0.34375 0.84375 0  0.375 0.84375 0  0.40625 0.84375 0  0.4375 0.84375 0  0.46875 0.84375 0  0.5 0.84375 0  0.53125 0.84375 0  0.5625 0.84375 0  0.59375 0.84375 0  0.625 0.84375 0  0.65625 0.84375 0  0.6875 0.84375 0  0.71875 0.84375 0  0.75 0.84375 0  0.78125 0.84375 0  0.8125 0.84375 0  0.84375 0.84375 0  0.875 0.84375 0  0.90625 0.84375 0  0.9375 0.84375 0  0.96875 0.84375 0  1 0.84375 0  0.03125 0.890625 0  0 0.890625 0  0.0625 0.890625 0  0.09375 0.890625 0  0.125 0.890625 0  0.15625 0.890625 0  0.1875 0.890625 0  0.21875 0.890625 0  0.25 0.890625 0  0.28125 0.890625 0  0.3125 0.890625 0  0.34375 0.890625 0  0.375 0.890625 0  0.40625 0.890625 0  0.4375 0.890625 0  0.46875 0.890625 0  0.5 0.890625 0  0.53125 0.890625 0  0.5625 0.890625 0  0.59375 0.890625 0  0.625 0.890625 0  0.65625 0.890625 0  0.6875 0.890625 0  0.71875 0.890625 0  0.75 0.890625 0  0.78125 0.890625 0  0.8125 0.890625 0  0.84375 0.890625 0  0.875 0.890625 0  0.90625 0.890625 0  0.9375 0.890625 0  0.96875 0.890625 0  1 0.890625 0  0.03125 0.9375 0  0 0.9375 0  0.0625 0.9375 0  0.09375 0.9375 0  0.125 0.9375 0  0.15625 0.9375 0  0.1875 0.9375 0  0.21875 0.9375 0  0.25 0.9375 0  0.28125 0.9375 0  0.3125 0.9375 0  0.34375 0.9375 0  0.375 0.9375 0  0.40625 0.9375 0  0.4375 0.9375 0  0.46875 0.9375 0  0.5 0.9375 0  0.53125 0.9375 0  0.5625 0.9375 0  0.59375 0.9375 0  0.625 0.9375 0  0.65625 0.9375 0  0.6875 0.9375 0  0.71875 0.9375 0  0.75 0.9375 0  0.78125 0.9375 0  0.8125 0.9375 0  0.84375 0.9375 0  0.875 0.9375 0  0.90625 0.9375 0  0.9375 0.9375 0  0.96875 0.9375 0  1 0.9375 0  0.03125 0.984375 0  0 0.984375 0  0.0625 0.984375 0  0.09375 0.984375 0  0.125 0.984375 0  0.15625 0.984375 0  0.1875 0.984375 0  0.21875 0.984375 0  0.25 0.984375 0  0.28125 0.984375 0  0.3125 0.984375 0  0.34375 0.984375 0  0.375 0.984375 0  0.40625 0.984375 0  0.4375 0.984375 0  0.46875 0.984375 0  0.5 0.984375 0  0.53125 0.984375 0  0.5625 0.984375 0  0.59375 0.984375 0  0.625 0.984375 0  0.65625 0.984375 0  0.6875 0.984375 0  0.71875 0.984375 0  0.75 0.984375 0  0.78125 0.984375 0  0.8125 0.984375 0  0.84375 0.984375 0  0.875 0.984375 0  0.90625 0.984375 0  0.9375 0.984375 0  0.96875 0.984375 0  1 0.984375 0  0.03125 1.03125 0  0 1.03125 0  0.0625 1.03125 0  0.09375 1.03125 0  0.125 1.03125 0  0.15625 1.03125 0  0.1875 1.03125 0  0.21875 1.03125 0  0.25 1.03125 0  0.28125 1.03125 0  0.3125 1.03125 0  0.34375 1.03125 0  0.375 1.03125 0  0.40625 1.03125 0  0.4375 1.03125 0  0.46875 1.03125 0  0.5 1.03125 0  0.53125 1.03125 0  0.5625 1.03125 0  0.59375 1.03125 0  0.625 1.03125 0  0.65625 1.03125 0  0.6875 1.03125 0  0.71875 1.03125 0  0.75 1.03125 0  0.78125 1.03125 0  0.8125 1.03125 0  0.84375 1.03125 0  0.875 1.03125 0  0.90625 1.03125 0  0.9375 1.03125 0  0.96875 1.03125 0  1 1.03125 0  0.03125 1.078125 0  0 1.078125 0  0.0625 1.078125 0  0.09375 1.078125 0  0.125 1.078125 0  0.15625 1.078125 0  0.1875 1.078125 0  0.21875 1.078125 0  0.25 1.078125 0  0.28125 1.078125 0  0.3125 1.078125 0  0.34375 1.078125 0  0.375 1.078125 0  0.40625 1.078125 0  0.4375 1.078125 0  0.46875 1.078125 0  0.5 1.078125 0  0.53125 1.078125 0  0.5625 1.078125 0  0.59375 1.078125 0  0.625 1.078125 0  0.65625 1.078125 0  0.6875 1.078125 0  0.71875 1.078125 0  0.75 1.078125 0  0.78125 1.078125 0  0.8125 1.078125 0  0.84375 1.078125 0  0.875 1.078125 0  0.90625 1.078125 0  0.9375 1.078125 0  0.96875 1.078125 0  1 1.078125 0  0.03125 1.125 0  0 1.125 0  0.0625 1.125 0  0.09375 1.125 0  0.125 1.125 0  0.15625 1.125 0  0.1875 1.125 0  0.21875 1.125 0  0.25 1.125 0  0.28125 1.125 0  0.3125 1.125 0  0.34375 1.125 0  0.375 1.125 0  0.40625 1.125 0  0.4375 1.125 0  0.46875 1.125 0  0.5 1.125 0  0.53125 1.125 0  0.5625 1.125 0  0.59375 1.125 0  0.625 1.125 0  0.65625 1.125 0  0.6875 1.125 0  0.71875 1.125 0  0.75 1.125 0  0.78125 1.125 0  0.8125 1.125 0  0.84375 1.125 0  0.875 1.125 0  0.90625 1.125 0  0.9375 1.125 0  0.96875 1.125 0  1 1.125 0  0.03125 1.171875 0  0 1.171875 0  0.0625 1.171875 0  0.09375 1.171875 0  0.125 1.171875 0  0.15625 1.171875 0  0.1875 1.171875 0  0.21875 1.171875 0  0.25 1.171875 0  0.28125 1.171875 0  0.3125 1.171875 0  0.34375 1.171875 0  0.375 1.171875 0  0.40625 1.171875 0  0.4375 1.171875 0  0.46875 1.171875 0  0.5 1.171875 0  0.53125 1.171875 0  0.5625 1.171875 0  0.59375 1.171875 0  0.625 1.171875 0  0.65625 1.171875 0  0.6875 1.171875 0  0.71875 1.171875 0  0.75 1.171875 0  0.78125 1.171875 0  0.8125 1.171875 0  0.84375 1.171875 0  0.875 1.171875 0  0.90625 1.171875 0  0.9375 1.171875 0  0.96875 1.171875 0  1 1.171875 0  0.03125 1.21875 0  0 1.21875 0  0.0625 1.21875 0  0.09375 1.21875 0  0.125 1.21875 0  0.15625 1.21875 0  0.1875 1.21875 0  0.21875 1.21875 0  0.25 1.21875 0  0.28125 1.21875 0  0.3125 1.21875 0  0.34375 1.21875 0  0.375 1.21875 0  0.40625 1.21875 0  0.4375 1.21875 0  0.46875 1.21875 0  0.5 1.21875 0  0.53125 1.21875 0  0.5
[...]
<PointData  Vectors="u"> 
<DataArray  type="Float64"  Name="u"  NumberOfComponents="3" format="ascii">1.4116406204619911e-02 7.1452971735918333e-04 0.0000000000000000e+00  1.6277600648296604e-02 3.9893933966241345e-03 0.0000000000000000e+00  1.7909150673257747e-02 4.2714859531374546e-03 0.0000000000000000e+00  1.5337471807528754e-02 9.3240347616142132e-04 0.0000000000000000e+00  1.5726484832942988e-02 7.2650131290584513e-03 0.0000000000000000e+00  1.7523755151162754e-02 7.8604988896916004e-03 0.0000000000000000e+00  1.4635505528008035e-02 1.0194589675383369e-02 0.0000000000000000e+00  1.6218960844727886e-02 1.1032488533510913e-02 0.0000000000000000e+00  1.3206370134567713e-02 1.2658690476131247e-02 0.0000000000000000e+00  1.4558912977079978e-02 1.3675989992487233e-02 0.0000000000000000e+00  1.1547072850739372e-02 1.4591614473231769e-02 0.0000000000000000e+00  1.2696885171680439e-02 1.5729446600051475e-02 0.0000000000000000e+00  9.7473023315592464e-03 1.5949085283779967e-02 0.0000000000000000e+00  1.0721979031136735e-02 1.7154506249385370e-02 0.0000000000000000e+00  7.8853484807337761e-03 1.6707059653986504e-02 0.0000000000000000e+00  8.7091914582436893e-03 1.7933204524293919e-02 0.0000000000000000e+00  6.0301758038523940e-03 1.6861441041868916e-02 0.0000000000000000e+00  6.7244958455395113e-03 1.8067028617870490e-02 0.0000000000000000e+00  4.2423929164393491e-03 1.6426862990611909e-02 0.0000000000000000e+00  4.8257632179366785e-03 1.7575788341679541e-02 0.0000000000000000e+00  2.5748519864310497e-03 1.5435063878587211e-02 0.0000000000000000e+00  3.0635759505982206e-03 1.6495981063141530e-02 0.0000000000000000e+00  1.0731546740849140e-03 1.3932936801999210e-02 0.0000000000000000e+00  1.4814322047401378e-03 1.4878984979694828e-02 0.0000000000000000e+00  -2.2398114857278959e-04 1.1980551768931457e-02 0.0000000000000000e+00  1.1630414983808143e-04 1.2789055713416890e-02 0.0000000000000000e+00  -1.2843352830121167e-03 9.6490771388714775e-03 0.0000000000000000e+00  -1.0012031316457490e-03 1.0301378279112580e-02 0.0000000000000000e+00  -2.0819629172429193e-03 7.0187894563672306e-03 0.0000000000000000e+00  -1.8465170151761717e-03 7.5000589966888751e-03 0.0000000000000000e+00  -2.5969898883710279e-03 4.1770492958858639e-03 0.0000000000000000e+00  -2.4010596533227046e-03 4.4762283295690557e-03 0.0000000000000000e+00  -2.8154911968732896e-03 1.2163616027678482e-03 0.0000000000000000e+00  -2.6520341228892593e-03 1.3261037422503939e-03 0.0000000000000000e+00  -2.7294275074133990e-03 -1.7675982140077835e-03 0.0000000000000000e+00  -2.5925278368375240e-03 -1.8508636068487112e-03 0.0000000000000000e+00  -2.3367048716777450e-03 -4.6779314595689564e-03 0.0000000000000000e+00  -2.2215439310842859e-03 -4.9539138940703897e-03 0.0000000000000000e+00  -1.6412663887267987e-03 -7.4185443180337964e-03 0.0000000000000000e+00  -1.5442389252993370e-03 -7.8828998800690043e-03 0.0000000000000000e+00  -6.5326477056992511e-04 -9.8962182824957577e-03 0.0000000000000000e+00  -5.7210933939918650e-04 -1.0540333295652883e-02 0.0000000000000000e+00  6.1070607294093956e-04 -1.2022815843735919e-02 0.0000000000000000e+00  6.7657745909304465e-04 -1.2833502509134760e-02 0.0000000000000000e+00  2.1273101736720987e-03 -1.3717572634736009e-02 0.0000000000000000e+00  2.1764355922853831e-03 -1.4676759837101691e-02 0.0000000000000000e+00  3.8662195598400929e-03 -1.4909550811977644e-02 0.0000000000000000e+00  3.8944690158612310e-03 -1.5993911198249579e-02 0.0000000000000000e+00  5.7898212621998119e-03 -1.5540167698343975e-02 0.0000000000000000e+00  5.7897031842097761e-03 -1.6720765628227191e-02 0.0000000000000000e+00  7.8529916649928058e-03 -1.5565833307386166e-02 0.0000000000000000e+00  7.8126749674924615e-03 -1.6807730595994917e-02 0.0000000000000000e+00  1.0002712557887049e-02 -1.4960583261095240e-02 0.0000000000000000e+00  9.9050440820197087e-03 -1.6222455156232420e-02 0.0000000000000000e+00  1.2176839045857785e-02 -1.3718720707138855e-02 0.0000000000000000e+00  1.1998425532189999e-02 -1.4952372228590962e-02 0.0000000000000000e+00  1.4298486988864758e-02 -1.1857524683077459e-02 0.0000000000000000e+00  1.4010393605565214e-02 -1.3007196783686052e-02 0.0000000000000000e+00  1.6249772903979758e-02 -9.4210622374122661e-03 0.0000000000000000e+00  1.5825467052469597e-02 -1.0421955606567751e-02 0.0000000000000000e+00  1.7752576446865963e-02 -6.4917868397234846e-03 0.0000000000000000e+00  1.7208732238729742e-02 -7.2655807567589773e-03 0.0000000000000000e+00  1.7927574806368016e-02 -3.2623615676420806e-03 0.0000000000000000e+00  1.7459891763059017e-02 -3.6937598925995798e-03 0.0000000000000000e+00  1.5189944176966560e-02 -3.0009061094005899e-04 0.0000000000000000e+00  1.4590421813803231e-02 -4.1159116670834640e-04 0.0000000000000000e+00  1.9809741958126275e-02 5.0661753229416170e-03 0.0000000000000000e+00  1.7169911854098059e-02 1.3983235454619184e-03 0.0000000000000000e+00  1.9303861486002553e-02 9.3118650504074117e-03 0.0000000000000000e+00  1.7925729573814799e-02 1.3011093950159338e-02 0.0000000000000000e+00  1.6157629450894807e-02 1.6036959664975238e-02 0.0000000000000000e+00  1.4168991357669126e-02 1.8340949567148063e-02 0.0000000000000000e+00  1.2062188994970923e-02 1.9898662067948374e-02 0.0000000000000000e+00  9.9185081642128720e-03 2.0705408377920950e-02 0.0000000000000000e+00  7.8080889156560583e-03 2.0775288611905137e-02 0.0000000000000000e+00  5.7924407665850969e-03 2.0139890042059030e-02 0.0000000000000000e+00  3.9246115410590948e-03 1.8846774406150509e-02 0.0000000000000000e+00  2.2501792492774261e-03 1.6957618268904066e-02 0.0000000000000000e+00  8.0731064938043657e-04 1.4546405403658452e-02 0.0000000000000000e+00  -3.7234593647355154e-04 1.1697451290709808e-02 0.0000000000000000e+00  -1.2637298597479888e-03 8.5036365373798734e-03 0.0000000000000000e+00  -1.8477130211003432e-03 5.0645257921505373e-03 0.0000000000000000e+00  -2.1112128651598495e-03 1.4847063340937740e-03 0.0000000000000000e+00  -2.0468973162596198e-03 -2.1280017479772557e-03 0.0000000000000000e+00  -1.6535174047759072e-03 -5.6641905096382400e-03 0.0000000000000000e+00  -9.3588844538812109e-04 -9.0146943385691382e-03 0.0000000000000000e+00  9.4558687420295476e-05 -1.2072388743776306e-02 0.0000000000000000e+00  1.4194909722031500e-03 -1.4734225719553674e-02 0.0000000000000000e+00  3.0128868076226430e-03 -1.6903334189116635e-02 0.0000000000000000e+00  4.8406511052150299e-03 -1.8491372418498644e-02 0.0000000000000000e+00  6.8597414314465737e-03 -1.9420958585953441e-02 0.0000000000000000e+00  9.0177584053072017e-03 -1.9628274834249487e-02 0.0000000000000000e+00  1.1252071608808967e-02 -1.9065624730404081e-02 0.0000000000000000e+00  1.3488743732851862e-02 -1.7703949378354650e-02 0.0000000000000000e+00  1.5637768321168491e-02 -1.5535164775241368e-02 0.0000000000000000e+00  1.7572049928467282e-02 -1.2575114137330937e-02 0.0000000000000000e+00  1.9028164366284215e-02 -8.8733671650655585e-03 0.0000000000000000e+00  1.9188200787822025e-02 -4.5895440466439466e-03 0.0000000000000000e+00  1.5681245592449485e-02 -8.5876881809372589e-04 0.0000000000000000e+00  2.2684899858675802e-02 6.0281183963769962e-03 0.0000000000000000e+00  1.9756191924827360e-02 1.8639416354911218e-03 0.0000000000000000e+00  2.2100842378441590e-02 1.1038765384645757e-02 0.0000000000000000e+00  2.0603358411702268e-02 1.5355438615362472e-02 0.0000000000000000e+00  1.8691584678204289e-02 1.8829863264765420e-02 0.0000000000000000e+00  1.6542532841178386e-02 2.1425975897360242e-02 0.0000000000000000e+00  1.4266168411906054e-02 2.3135519443503380e-02 0.0000000000000000e+00  1.1951689409917010e-02 2.3970049404843145e-02 0.0000000000000000e+00  9.6763524851297706e-03 2.3959162201730746e-02 0.0000000000000000e+00  7.5064928632019986e-03 2.3149078180572595e-02 0.0000000000000000e+00  5.4994547886314500e-03 2.1600937149159959e-02 0.0000000000000000e+00  3.7032145656524336e-03 1.9389055710740007e-02 0.0000000000000000e+00  2.1581735672063320e-03 1.6599008250949013e-02 0.0000000000000000e+00  8.9683230938606480e-04 1.3325931455310813e-02 0.0000000000000000e+00  -5.4676886846287775e-05 9.6727088752647829e-03 0.0000000000000000e+00  -6.7696869029013507e-04 5.7485019449135775e-03 0.0000000000000000e+00  -9.5624080441341231e-04 1.6671065522169701e-03 0.0000000000000000e+00  -8.8486940501543952e-04 -2.4543521896399985e-03 0.0000000000000000e+00  -4.6082206079391195e-04 -6.4969890048686757e-03 0.0000000000000000e+00  3.1152081988598167e-04 -1.0341510478435213e-02 0.0000000000000000e+00  1.4214362423013633e-03 -1.3869913540810998e-02 0.0000000000000000e+00  2.8506815830125214e-03 -1.6967128195231100e-02 0.0000000000000000e+00  4.5731709353489958e-03 -1.9523039360083715e-02 0.0000000000000000e+00  6.5536169488003030e-03 -2.1434583206759467e-02 0.0000000000000000e+00  8.7470537605333146e-03 -2.2608172105145718e-02 0.0000000000000000e+00  1.1097457549607549e-02 -2.2962195615299007e-02 0.0000000000000000e+00  1.3537293578190184e-02 -2.2429670778607649e-02 0.0000000000000000e+00  1.5985486685520158e-02 -2.0960808766861572e-02 0.0000000000000000e+00  1.8342394474630038e-02 -1.8525618226797134e-02 0.0000000000000000e+00  2.0464051114680637e-02 -1.5117530961670976e-02 0.0000000000000000e+00  2.2041980157252450e-02 -1.0767026817612954e-02 0.0000000000000000e+00  2.2093536927428485e-02 -5.6509312205637085e-03 0.0000000000000000e+00  1.7841473465885341e-02 -1.3598293176651445e-03 0.0000000000000000e+00  2.6554414898426918e-02 7.0926743653507568e-03 0.0000000000000000e+00  2.3140650893372736e-02 2.3477422520872537e-03 0.0000000000000000e+00  2.5920212130737287e-02 1.2945529507041545e-02 0.0000000000000000e+00  2.4291381800947583e-02 1.7936845552777116e-02 0.0000000000000000e+00  2.2217007584316384e-02 2.1897901662099709e-02 0.0000000000000000e+00  1.9887251688861553e-02 2.4806988564756983e-02 0.0000000000000000e+00  1.7422368510160453e-02 2.6674146948981719e-02 0.0000000000000000e+00  1.4920907800954165e-02 2.7529624630652210e-02 0.0000000000000000e+00  1.2466634015278621e-02 2.7421107998105324e-02 0.0000000000000000e+00  1.0132021163897564e-02 2.6411882703563275e-02 0.0000000000000000e+00  7.9775637689583120e-03 2.4578890310005593e-02 0.0000000000000000e+00  6.0544352424708649e-03 2.2010836742589916e-02 0.0000000000000000e+00  4.4036960896256657e-03 1.8806349211739872e-02 0.0000000000000000e+00  3.0591884320525023e-03 1.5072245903432048e-02 0.0000000000000000e+00  2.0465540671209185e-03 1.0922089180759429e-02 0.0000000000000000e+00  1.3858542554510923e-03 6.4747466318452792e-03 0.0000000000000000e+00  1.0904302438547895e-03 1.8533569924708453e-03 0.0000000000000000e+00  1.1688277904394254e-03 -2.8159028002738493e-03 0.0000000000000000e+00  1.6232910468580981e-03 -7.4046519363083745e-03 0.0000000000000000e+00  2.4508681326047832e-03 -1.1783551983022026e-02 0.0000000000000000e+00  3.6415682707575184e-03 -1.5823308511469236e-02 0.0000000000000000e+00  5.1785742699267867e-03 -1.9396201398194750e-02 0.0000000000000000e+00  7.0360810877339594e-03 -2.2377598315153482e-02 0.0000000000000000e+00  9.1790102143866278e-03 -2.4647987785064548e-02 0.0000000000000000e+00  1.1560783693303159e-02 -2.6095178357591654e-02 0.0000000000000000e+00  1.4122819598799579e-02 -2.6616884253819063e-02 0.0000000000000000e+00  1.6792574201067077e-02 -2.6123482426731570e-02 0.0000000000000000e+00  1.9482167491720076e-02 -2.4540939057485518e-02 0.0000000000000000e+00  2.2081280366428278e-02 -2.1814008890642077e-02 0.0000000000000000e+00  2.4426784703848826e-02 -1.7911175632719357e-02 0.0000000000000000e+00  2.6155296410971016e-02 -1.2843085217050725e-02 0.0000000000000000e+00  2.6081729172182194e-02 -6.8066097832406034e-03 0.0000000000000000e+00  2.0887047064323094e-02 -1.8581570093273183e-03 0.0000000000000000e+00  3.1464585617338066e-02 8.2557485293742062e-03 0.0000000000000000e+00  2.7365441390335882e-02 2.8712406181852896e-03 0.0000000000000000e+00  3.0807995829022397e-02 1.5022665196673205e-02 0.0000000000000000e+00  2.9043928200039263e-02 2.0740686909721293e-02 0.0000000000000000e+00  2.6801033685657723e-02 2.5220859067349118e-02 0.0000000000000000e+00  2.4288828422801351e-02 2.8457705734690336e-02 0.0000000000000000e+00  2.1639558277430606e-02 3.0482428844606769e-02 0.0000000000000000e+00  1.8959823226016814e-02 3.1346979525551162e-02 0.0000000000000000e+00  1.6340682454710431e-02 3.1120252755868529e-02 0.0000000000000000e+00  1.3858163013281443e-02 2.9885404833644217e-02 0.0000000000000000e+00  1.1576299814947023e-02 2.7737670885145914e-02 0.0000000000000000e+00  9.5462222247866789e-03 2.4782075797578750e-02 0.0000000000000000e+00  7.8100278899994177e-03 2.1131666102552602e-02 0.0000000000000000e+00  6.3995646629101139e-03 1.6905784633530319e-02 0.0000000000000000e+00  5.3406109457108750e-03 1.2228874269773598e-02 0.0000000000000000e+00  4.6510194228670358e-03 7.2294510580184351e-03 0.0000000000000000e+00  4.3447306313505818e-03 2.0393617229992004e-03 0.0000000000000000e+00  4.4292187614330732e-03 -3.2066871512077188e-03 0.0000000000000000e+00  4.9085389561143366e-03 -8.3717017698248502e-03 0.0000000000000000e+00  5.7803265171809080e-03 -1.3316701985054484e-02 0.0000000000000000e+00  7.0375186131204593e-03 -1.7901497340196471e-02 0.0000000000000000e+00  8.6649943049518455e-03 -2.1985355665390401e-02 0.0000000000000000e+00  1.0639895028500849e-02 -2.5428345831788473e-02 0.0000000000000000e+00  1.2928337282892846e-02 -2.8092852610483547e-02 0.0000000000000000e+00  1.5484858533620648e-02 -2.9845744620904051e-02 0.0000000000000000e+00  1.8249481722198861e-02 -3.0560936028289642e-02 0.0000000000000000e+00  2.1146869713762704e-02 -3.0122433822613204e-02 0.0000000000000000e+00  2.4082967032101152e-02 -2.8427825851391260e-02 0.0000000000000000e+00  2.6937502321039478e-02 -2.5392378099330482e-02 0.0000000000000000e+00  2.9525883381434897e-02 -2.0955747259280906e-02 0.0000000000000000e+00  3.1419714084793639e-02 -1.5105828048650734e-02 0.0000000000000000e+00  3.1186027464163078e-02 -8.0601190484707996e-03 0.0000000000000000e+00  2.4808131247760490e-02 -2.3729759291268734e-03 0.0000000000000000e+00  3.7508519602225759e-02 9.5176999406264059e-03 0.0000000000000000e+00  3.2504245429619459e-02 3.4512678648399081e-03 0.0000000000000000e+00  3.6862304187216054e-02 1.7266466115203077e-02 0.0000000000000000e+00  3.4968543919574963e-02 2.3757711177364714e-02 0.0000000000000000e+00  3.2565018297337302e-02 2.8781660290637587e-02 0.0000000000000000e+00  2.9887513802573928e-02 3.2352296724779628e-02 0.0000000000000000e+00  2.7080051258275423e-02 3.4525753002924937e-02 0.0000000000000000e+00  2.4257489221045179e-02 3.5379788998488627e-02 0.0000000000000000e+00  2.1515099033769018e-02 3.5008292552871731e-02 0.0000000000000000e+00  1.8931798664407574e-02 3.3517856007990392e-02 0.0000000000000000e+00  1.6570690766461244e-02 3.1024742209752432e-02 0.0000000000000000e+00  1.4482289996575535e-02 2.7652515554754589e-02 0.0000000000000000e+00  1.2704600015324958e-02 2.3529851101279680e-02 0.0000000000000000e+00  1.1267708561954904e-02 1.8789245833172690e-02 0.0000000000000000e+00  1.0192522866491454e-02 1.3565803110624840e-02 0.0000000000000000e+00  9.4960990168551328e-03 7.9969640046169566e-03 0.0000000000000000e+00  9.1888302817507653e-03 2.2221369195259003e-03 0.0000000000000000e+00  9.2796263467951473e-03 -3.6169456090658519e-03 0.0000000000000000e+00  9.7716507973653315e-03 -9.3760550396004144e-03 0.0000000000000000e+00  1.0666432960632168e-02 -1.4908066825141519e-02 0.0000000000000000e+00  1.1958980972145313e-02 -2.0062740360710499e-02 0.0000000000000000e+00  1.3639747043745732e-02 -2.4686890186454348e-02 0.0000000000000000e+00  1.5689769653419131e-02 -2.8624812473857876e-02 0.0000000000000000e+00  1.8080571218964378e-02 -3.1719554614602644e-02 0.0000000000000000e+00  2.0769934448753878e-02 -3.3814652670122541e-02 0.0000000000000000e+00  2.3700475301687916e-02 -3.4756818547050539e-02 0.0000000000000000e+00  2.6796364918831958e-02 -3.4399288738792368e-02 0.0000000000000000e+00  2.9960250328334062e-02 -3.2606050600158677e-02 0.0000000000000000e+00  3.3062789296839021e-02 -2.9257160205908506e-02 0.0000000000000000e+00  3.5896652017397827e-02 -2.4257549580281045e-02 0.0000000000000000e+00  3.7956709480134604e-02 -1.7567096070919518e-02 0.0000000000000000e+00  3.7509726900506746e-02 -9.4232468228896728e-03 0.0000000000000000e+00  2.9663592623825084e-02 -2.9289519220402670e-03 0.0000000000000000e+00  4.4816246822075280e-02 1.0874322506588530e-02 0.0000000000000000e+00  3.8657554872357322e-02 4.1014101683496968e-03 0.0000000000000000e+00  4.4222264487049370e-02 1.9664316308546773e-02 0.0000000000000000e+00  4.2214772899652850e-02 2.6963498199959593e-02 0.0000000000000000e+00  3.9674088230217341e-02 3.2541510794022711e-02 0.0000000000000000e+00  3.6868354456048240e-02 3.6436677213221358e-02 0.0000000000000000e+00  3.3954098796403993e-02 3.8735581323740012e-02 0.0000000000000000e+00  3.1052337667217003e-02 3.9547270796245433e-02 0.0000000000000000e+00  2.8260395074163076e-02 3.8995687979953786e-02 0.0000000000000000e+00  2.5655578445155942e-02 3.7215096450066702e-02 0.0000000000000000e+00  2.3297312683714204e-02 3.4346171235583402e-02 0.0000000000000000e+00  2.1229608731183042e-02 3.0533128330559909e-02 0.0000000000000000e+00  1.9484515742327041e-02 2.5921524101066441e-02 0.0000000000000000e+00  1.8083903541974356e-02 2.0656888627774136e-02 0.0000000000000000e+00  1.7043934451515062e-02 1.4884312762201032e-02 0.0000000000000000e+00  1.6374673896883265e-02 8.7483107530739977e-03 0.0000000000000000e+00  1.6085453207090778e-02 2.3938559024826917e-03 0.0000000000000000e+00  1.6181648875764870e-02 -4.0329854112872102e-03 0.0000000000000000e+00  1.6669879872220000e-02 -1.0383264185435429e-02 0.0000000000000000e+00  1.7552693006217448e-02 -1.6504214497212271e-02 0.0000000000000000e+00  1.8832421956641011e-02 -2.2237664150157550e-02 0.0000000000000000e+00  2.0504947031814602e-02 -2.7419287810382054e-02 0.0000000000000000e+00  2.2560816864753332e-02 -3.1878207688580809e-02 0.0000000000000000e+00  2.4979486404549906e-02 -3.5437283976073722e-02 0.0000000000000000e+00  2.7727701852237885e-02 -3.7914680965242163e-02 0.0000000000000000e+00  3.0754734690313059e-02 -3.9126178704176430e-02 0.0000000000000000e+00  3.3989353201903660e-02 -3.8889098919492611e-02 0.0000000000000000e+00  3.7334590134335363e-02 -3.7027218992078295e-02 0.0000000000000000e+00  4.0654762929974567e-02 -3.3377693527383595e-02 0.0000000000000000e+00  4.3718827626658054e-02 -2.7802348753273830e-02 0.0000000000000000e+00  4.5932244146028901e-02 -2.0224975801403380e-02 0.0000000000000000e+00  4.5200844595306877e-02 -1.0900618409255929e-02 0.0000000000000000e+00  3.5551871751256459e-02 -3.5458896780983214e-03 0.0000000000000000e+00  5.3548285788112132e-02 1.2315020537177526e-02 0.0000000000000000e+00  4.5947414509864469e-02 4.8334416917555460e-03 0.0000000000000000e+00  5.3059477104517826e-02 2.2190253130325535e-02 0.0000000000000000e+00  5.0966349519044128e-02 3.0312393655743564e-02 0.0000000000000000e+00  4.8329615714356081e-02 3.6432143999777608e-02 0.0000000000000000e+00  4.5456512858549424e-02 4.0619372387720669e-02 0.0000000000000000e+00  4.2516030031953110e-02 4.2999113182729191e-02 0.0000000000000000e+00  3.9632638185127946e-02 4.3719120838630311e-02 0.0000000000000000e+00  3.6901458572861354e-02 4.2940127582126411e-02 0.0000000000000000e+00  3.4393181381965406e-02 4.0829279060264977e-02 0.0000000000000000e+00  3.2157468431039712e-02 3.7555581865936251e-02 0.0000000000000000e+00  3.0226764152464874e-02 3.3286075337303538e-02 0.0000000000000000e+00  2.8620480422351959e-02 2.8183901534297277e-02 0.0000000000000000e+00  2.7349009536822028e-02 2.2407000163584368e-02 0.0000000000000000e+00  2.6417135669551537e-02 1.6108383744616327e-02 0.0000000000000000e+00  2.5827601511762478e-02 9.4370524981685407e-03 0.0000000000000000e+00  2.5582622756265657e-02 2.5396148933246117e-03 0.0000000000000000e+00  2.5686975328685680e-02 -4.4371478857025753e-03 0.0000000000000000e+00  