<?xml version="1.0"?>
<VTKFile type="UnstructuredGrid"  version="0.1"  >
<UnstructuredGrid>
<Piece  NumberOfPoints="759" NumberOfCells="1408">
<Points>
<DataArray  type="Float64"  NumberOfComponents="3"  format="ascii">0 0.46875 0  0.03125 0.46875 0  0.03125 0.515625 0  0 0.515625 0  0.0625 0.46875 0  0.0625 0.515625 0  0.09375 0.46875 0  0.09375 0.515625 0  0.125 0.46875 0  0.125 0.515625 0  0.15625 0.46875 0  0.15625 0.515625 0  0.1875 0.46875 0  0.1875 0.515625 0  0.21875 0.46875 0  0.21875 0.515625 0  0.25 0.46875 0  0.25 0.515625 0  0.28125 0.46875 0  0.28125 0.515625 0  0.3125 0.46875 0  0.3125 0.515625 0  0.34375 0.46875 0  0.34375 0.515625 0  0.375 0.46875 0  0.375 0.515625 0  0.40625 0.46875 0  0.40625 0.515625 0  0.4375 0.46875 0  0.4375 0.515625 0  0.46875 0.46875 0  0.46875 0.515625 0  0.5 0.46875 0  0.5 0.515625 0  0.53125 0.46875 0  0.53125 0.515625 0  0.5625 0.46875 0  0.5625 0.515625 0  0.59375 0.46875 0  0.59375 0.515625 0  0.625 0.46875 0  0.625 0.515625 0  0.65625 0.46875 0  0.65625 0.515625 0  0.6875 0.46875 0  0.6875 0.515625 0  0.71875 0.46875 0  0.71875 0.515625 0  0.75 0.46875 0  0.75 0.515625 0  0.78125 0.46875 0  0.78125 0.515625 0  0.8125 0.46875 0  0.8125 0.515625 0  0.84375 0.46875 0  0.84375 0.515625 0  0.875 0.46875 0  0.875 0.515625 0  0.90625 0.46875 0  0.90625 0.515625 0  0.9375 0.46875 0  0.9375 0.515625 0  0.96875 0.46875 0  0.96875 0.515625 0  1 0.46875 0  1 0.515625 0  0.03125 0.5625 0  0 0.5625 0  0.0625 0.5625 0  0.09375 0.5625 0  0.125 0.5625 0  0.15625 0.5625 0  0.1875 0.5625 0  0.21875 0.5625 0  0.25 0.5625 0  0.28125 0.5625 0  0.3125 0.5625 0  0.34375 0.5625 0  0.375 0.5625 0  0.40625 0.5625 0  0.4375 0.5625 0  0.46875 0.5625 0  0.5 0.5625 0  0.53125 0.5625 0  0.5625 0.5625 0  0.59375 0.5625 0  0.625 0.5625 0  0.65625 0.5625 0  0.6875 0.5625 0  0.71875 0.5625 0  0.75 0.5625 0  0.78125 0.5625 0  0.8125 0.5625 0  0.84375 0.5625 0  0.875 0.5625 0  0.90625 0.5625 0  0.9375 0.5625 0  0.96875 0.5625 0  1 0.5625 0  0.03125 0.609375 0  0 0.609375 0  0.0625 0.609375 0  0.09375 0.609375 0  0.125 0.609375 0  0.15625 0.609375 0  0.1875 0.609375 0  0.21875 0.609375 0  0.25 0.609375 0  0.28125 0.609375 0  0.3125 0.609375 0  0.34375 0.609375 0  0.375 0.609375 0  0.40625 0.609375 0  0.4375 0.609375 0  0.46875 0.609375 0  0.5 0.609375 0  0.53125 0.609375 0  0.5625 0.609375 0  0.59375 0.609375 0  0.625 0.609375 0  0.65625 0.609375 0  0.6875 0.609375 0  0.71875 0.609375 0  0.75 0.609375 0  0.78125 0.609375 0  0.8125 0.609375 0  0.84375 0.609375 0  0.875 0.609375 0  0.90625 0.609375 0  0.9375 0.609375 0  0.96875 0.609375 0  1 0.609375 0  0.03125 0.65625 0  0 0.65625 0  0.0625 0.65625 0  0.09375 0.65625 0  0.125 0.65625 0  0.15625 0.65625 0  0.1875 0.65625 0  0.21875 0.65625 0  0.25 0.65625 0  0.28125 0.65625 0  0.3125 0.65625 0  0.34375 0.65625 0  0.375 0.65625 0  0.40625 0.65625 0  0.4375 0.65625 0  0.46875 0.65625 0  0.5 0.65625 0  0.53125 0.65625 0  0.5625 0.65625 0  0.59375 0.65625 0  0.625 0.65625 0  0.65625 0.65625 0  0.6875 0.65625 0  0.71875 0.65625 0  0.75 0.65625 0  0.78125 0.65625 0  0.8125 0.65625 0  0.84375 0.65625 0  0.875 0.65625 0  0.90625 0.65625 0  0.9375 0.65625 0  0.96875 0.65625 0  1 0.65625 0  0.03125 0.703125 0  0 0.703125 0  0.0625 0.703125 0  0.09375 0.703125 0  0.125 0.703125 0  0.15625 0.703125 0  0.1875 0.703125 0  0.21875 0.703125 0  0.25 0.703125 0  0.28125 0.703125 0  0.3125 0.703125 0  0.34375 0.703125 0  0.375 0.703125 0  0.40625 0.703125 0  0.4375 0.703125 0  0.46875 0.703125 0  0.5 0.703125 0  0.53125 0.703125 0  0.5625 0.703125 0  0.59375 0.703125 0  0.625 0.703125 0  0.65625 0.703125 0  0.6875 0.703125 0  0.71875 0.703125 0  0.75 0.703125 0  0.78125 0.703125 0  0.8125 0.703125 0  0.84375 0.703125 0  0.875 0.703125 0  0.90625 0.703125 0  0.9375 0.703125 0  0.96875 0.703125 0  1 0.703125 0  0.03125 0.75 0  0 0.75 0  0.0625 0.75 0  0.09375 0.75 0  0.125 0.75 0  0.15625 0.75 0  0.1875 0.75 0  0.21875 0.75 0  0.25 0.75 0  0.28125 0.75 0  0.3125 0.75 0  0.34375 0.75 0  0.375 0.75 0  0.40625 0.75 0  0.4375 0.75 0  0.46875 0.75 0  0.5 0.75 0  0.53125 0.75 0  0.5625 0.75 0  0.59375 0.75 0  0.625 0.75 0  0.65625 0.75 0  0.6875 0.75 0  0.71875 0.75 0  0.75 0.75 0  0.78125 0.75 0  0.8125 0.75 0  0.84375 0.75 0  0.875 0.75 0  0.90625 0.75 0  0.9375 0.75 0  0.96875 0.75 0  1 0.75 0  0.03125 0.796875 0  0 0.796875 0  0.0625 0.796875 0  0.09375 0.796875 0  0.125 0.796875 0  0.15625 0.796875 0  0.1875 0.796875 0  0.21875 0.796875 0  0.25 0.796875 0  0.28125 0.796875 0  0.3125 0.796875 0  0.34375 0.796875 0  0.375 0.796875 0  0.40625 0.796875 0  0.4375 0.796875 0  0.46875 0.796875 0  0.5 0.796875 0  0.53125 0.796875 0  0.5625 0.796875 0  0.59375 0.796875 0  0.625 0.796875 0  0.65625 0.796875 0  0.6875 0.796875 0  0.71875 0.796875 0  0.75 0.796875 0  0.78125 0.796875 0  0.8125 0.796875 0  0.84375 0.796875 0  0.875 0.796875 0  0.90625 0.796875 0  0.9375 0.796875 0  0.96875 0.796875 0  1 0.796875 0  0.03125 0.84375 0  0 0.84375 0  0.0625 0.84375 0  0.09375 0.84375 0  0.125 0.84375 0  0.15625 0.84375 0  0.1875 0.84375 0  0.21875 0.84375 0  0.25 0.84375 0  0.28125 0.84375 0  0.3125 0.84375 0  0.34375 0.84375 0  0.375 0.84375 0  0.40625 0.84375 0  0.4375 0.84375 0  0.46875 0.84375 0  0.5 0.84375 0  0.53125 0.84375 0  0.5625 0.84375 0  0.59375 0.84375 0  0.625 0.84375 0  0.65625 0.84375 0  0.6875 0.84375 0  0.71875 0.84375 0  0.75 0.84375 0  0.78125 0.84375 0  0.8125 0.84375 0  0.84375 0.84375 0  0.875 0.84375 0  0.90625 0.84375 0  0.9375 0.84375 0  0.96875 0.84375 0  1 0.84375 0  0.03125 0.890625 0  0 0.890625 0  0.0625 0.890625 0  0.09375 0.890625 0  0.125 0.890625 0  0.15625 0.890625 0  0.1875 0.890625 0  0.21875 0.890625 0  0.25 0.890625 0  0.28125 0.890625 0  0.3125 0.890625 0  0.34375 0.890625 0  0.375 0.890625 0  0.40625 0.890625 0  0.4375 0.890625 0  0.46875 0.890625 0  0.5 0.890625 0  0.53125 0.890625 0  0.5625 0.890625 0  0.59375 0.890625 0  0.625 0.890625 0  0.65625 0.890625 0  0.6875 0.890625 0  0.71875 0.890625 0  0.75 0.890625 0  0.78125 0.890625 0  0.8125 0.890625 0  0.84375 0.890625 0  0.875 0.890625 0  0.90625 0.890625 0  0.9375 0.890625 0  0.96875 0.890625 0  1 0.890625 0  0.03125 0.9375 0  0 0.9375 0  0.0625 0.9375 0  0.09375 0.9375 0  0.125 0.9375 0  0.15625 0.9375 0  0.1875 0.9375 0  0.21875 0.9375 0  0.25 0.9375 0  0.28125 0.9375 0  0.3125 0.9375 0  0.34375 0.9375 0  0.375 0.9375 0  0.40625 0.9375 0  0.4375 0.9375 0  0.46875 0.9375 0  0.5 0.9375 0  0.53125 0.9375 0  0.5625 0.9375 0  0.59375 0.9375 0  0.625 0.9375 0  0.65625 0.9375 0  0.6875 0.9375 0  0.71875 0.9375 0  0.75 0.9375 0  0.78125 0.9375 0  0.8125 0.9375 0  0.84375 0.9375 0  0.875 0.9375 0  0.90625 0.9375 0  0.9375 0.9375 0  0.96875 0.9375 0  1 0.9375 0  0.03125 0.984375 0  0 0.984375 0  0.0625 0.984375 0  0.09375 0.984375 0  0.125 0.984375 0  0.15625 0.984375 0  0.1875 0.984375 0  0.21875 0.984375 0  0.25 0.984375 0  0.28125 0.984375 0  0.3125 0.984375 0  0.34375 0.984375 0  0.375 0.984375 0  0.40625 0.984375 0  0.4375 0.984375 0  0.46875 0.984375 0  0.5 0.984375 0  0.53125 0.984375 0  0.5625 0.984375 0  0.59375 0.984375 0  0.625 0.984375 0  0.65625 0.984375 0  0.6875 0.984375 0  0.71875 0.984375 0  0.75 0.984375 0  0.78125 0.984375 0  0.8125 0.984375 0  0.84375 0.984375 0  0.875 0.984375 0  0.90625 0.984375 0  0.9375 0.984375 0  0.96875 0.984375 0  1 0.984375 0  0.03125 1.03125 0  0 1.03125 0  0.0625 1.03125 0  0.09375 1.03125 0  0.125 1.03125 0  0.15625 1.03125 0  0.1875 1.03125 0  0.21875 1.03125 0  0.25 1.03125 0  0.28125 1.03125 0  0.3125 1.03125 0  0.34375 1.03125 0  0.375 1.03125 0  0.40625 1.03125 0  0.4375 1.03125 0  0.46875 1.03125 0  0.5 1.03125 0  0.53125 1.03125 0  0.5625 1.03125 0  0.59375 1.03125 0  0.625 1.03125 0  0.65625 1.03125 0  0.6875 1.03125 0  0.71875 1.03125 0  0.75 1.03125 0  0.78125 1.03125 0  0.8125 1.03125 0  0.84375 1.03125 0  0.875 1.03125 0  0.90625 1.03125 0  0.9375 1.03125 0  0.96875 1.03125 0  1 1.03125 0  0.03125 1.078125 0  0 1.078125 0  0.0625 1.078125 0  0.09375 1.078125 0  0.125 1.078125 0  0.15625 1.078125 0  0.1875 1.078125 0  0.21875 1.078125 0  0.25 1.078125 0  0.28125 1.078125 0  0.3125 1.078125 0  0.34375 1.078125 0  0.375 1.078125 0  0.40625 1.078125 0  0.4375 1.078125 0  0.46875 1.078125 0  0.5 1.078125 0  0.53125 1.078125 0  0.5625 1.078125 0  0.59375 1.078125 0  0.625 1.078125 0  0.65625 1.078125 0  0.6875 1.078125 0  0.71875 1.078125 0  0.75 1.078125 0  0.78125 1.078125 0  0.8125 1.078125 0  0.84375 1.078125 0  0.875 1.078125 0  0.90625 1.078125 0  0.9375 1.078125 0  0.96875 1.078125 0  1 1.078125 0  0.03125 1.125 0  0 1.125 0  0.0625 1.125 0  0.09375 1.125 0  0.125 1.125 0  0.15625 1.125 0  0.1875 1.125 0  0.21875 1.125 0  0.25 1.125 0  0.28125 1.125 0  0.3125 1.125 0  0.34375 1.125 0  0.375 1.125 0  0.40625 1.125 0  0.4375 1.125 0  0.46875 1.125 0  0.5 1.125 0  0.53125 1.125 0  0.5625 1.125 0  0.59375 1.125 0  0.625 1.125 0  0.65625 1.125 0  0.6875 1.125 0  0.71875 1.125 0  0.75 1.125 0  0.78125 1.125 0  0.8125 1.125 0  0.84375 1.125 0  0.875 1.125 0  0.90625 1.125 0  0.9375 1.125 0  0.96875 1.125 0  1 1.125 0  0.03125 1.171875 0  0 1.171875 0  0.0625 1.171875 0  0.09375 1.171875 0  0.125 1.171875 0  0.15625 1.171875 0  0.1875 1.171875 0  0.21875 1.171875 0  0.25 1.171875 0  0.28125 1.171875 0  0.3125 1.171875 0  0.34375 1.171875 0  0.375 1.171875 0  0.40625 1.171875 0  0.4375 1.171875 0  0.46875 1.171875 0  0.5 1.171875 0  0.53125 1.171875 0  0.5625 1.171875 0  0.59375 1.171875 0  0.625 1.171875 0  0.65625 1.171875 0  0.6875 1.171875 0  0.71875 1.171875 0  0.75 1.171875 0  0.78125 1.171875 0  0.8125 1.171875 0  0.84375 1.171875 0  0.875 1.171875 0  0.90625 1.171875 0  0.9375 1.171875 0  0.96875 1.171875 0  1 1.171875 0  0.03125 1.21875 0  0 1.21875 0  0.0625 1.21875 0  0.09375 1.21875 0  0.125 1.21875 0  0.15625 1.21875 0  0.1875 1.21875 0  0.21875 1.21875 0  0.25 1.21875 0  0.28125 1.21875 0  0.3125 1.21875 0  0.34375 1.21875 0  0.375 1.21875 0  0.40625 1.21875 0  0.4375 1.21875 0  0.46875 1.21875 0  0.5 1.21875 0  0.53125 1.21875 0  0.5
[...]
<PointData  Vectors="u"> 
<DataArray  type="Float64"  Name="u"  NumberOfComponents="3" format="ascii">1.6110664942821926e-03 1.1172587076936847e-04 0.0000000000000000e+00  1.6182326110142321e-03 2.0627730757949694e-04 0.0000000000000000e+00  1.7637657464671039e-03 2.5140249381037103e-04 0.0000000000000000e+00  1.7654218387749944e-03 1.5760949395931769e-04 0.0000000000000000e+00  1.4842777674918984e-03 3.2551960995553901e-04 0.0000000000000000e+00  1.6385167422166371e-03 4.1652793739941724e-04 0.0000000000000000e+00  1.2804182323756972e-03 4.3250109455867747e-04 0.0000000000000000e+00  1.4344942495137009e-03 5.6297323131796763e-04 0.0000000000000000e+00  1.0242638745703145e-03 5.1856993724671966e-04 0.0000000000000000e+00  1.1728544302281054e-03 6.8106664779354789e-04 0.0000000000000000e+00  7.2933963935180876e-04 5.8144984735745953e-04 0.0000000000000000e+00  8.6856843870621774e-04 7.6778649776178211e-04 0.0000000000000000e+00  4.0901919147652506e-04 6.2012136970376625e-04 0.0000000000000000e+00  5.3568308724108752e-04 8.2189291551129954e-04 0.0000000000000000e+00  7.6480489082481653e-05 6.3437358013365144e-04 0.0000000000000000e+00  1.8794969978925646e-04 8.4330960555590651e-04 0.0000000000000000e+00  -2.5561361678046185e-04 6.2476208915979430e-04 0.0000000000000000e+00  -1.6135387277507756e-04 8.3293454312722084e-04 0.0000000000000000e+00  -5.7538963143442378e-04 5.9252369849014557e-04 0.0000000000000000e+00  -4.9978752010649652e-04 7.9254564973291783e-04 0.0000000000000000e+00  -8.7201610495159774e-04 5.3950219862512305e-04 0.0000000000000000e+00  -8.1594546575118338e-04 7.2465588767520325e-04 0.0000000000000000e+00  -1.1358816828483111e-03 4.6803649426920251e-04 0.0000000000000000e+00  -1.0997078696078166e-03 6.3240010269573752e-04 0.0000000000000000e+00  -1.3587448789026014e-03 3.8087627341619170e-04 0.0000000000000000e+00  -1.3423377569688831e-03 5.1938880043421974e-04 0.0000000000000000e+00  -1.5338254369639585e-03 2.8108016686152916e-04 0.0000000000000000e+00  -1.5366206170194738e-03 3.8960816506424423e-04 0.0000000000000000e+00  -1.6558754146162166e-03 1.7194432440482700e-04 0.0000000000000000e+00  -1.6768916122196352e-03 2.4730486612271012e-04 0.0000000000000000e+00  -1.7212155223263774e-03 5.6924527299942160e-05 0.0000000000000000e+00  -1.7590998965238717e-03 9.6914612797006173e-05 0.0000000000000000e+00  -1.7277647747240821e-03 -6.0418255240379616e-05 0.0000000000000000e+00  -1.7808081609907813e-03 -5.7017369518485559e-05 0.0000000000000000e+00  -1.6750531209968238e-03 -1.7647704436825036e-04 0.0000000000000000e+00  -1.7412230007659885e-03 -2.0988623627763781e-04 0.0000000000000000e+00  -1.5642322558562165e-03 -2.8764588713504598e-04 0.0000000000000000e+00  -1.6411878214915169e-03 -3.5708823277126259e-04 0.0000000000000000e+00  -1.3980744431033138e-03 -3.9037676006456392e-04 0.0000000000000000e+00  -1.4832031273964300e-03 -4.9406936100041769e-04 0.0000000000000000e+00  -1.1809653077010898e-03 -4.8123494227724623e-04 0.0000000000000000e+00  -1.2714107011323290e-03 -6.1639414332216797e-04 0.0000000000000000e+00  -9.1887308587143850e-04 -5.5697196271488239e-04 0.0000000000000000e+00  -1.0115955731530937e-03 -7.1981639039067353e-04 0.0000000000000000e+00  -6.1929937945041978e-04 -6.1460247448665733e-04 0.0000000000000000e+00  -7.1113231917822504e-04 -8.0037936669639280e-04 0.0000000000000000e+00  -2.9119053725379401e-04 -6.5150324653765021e-04 0.0000000000000000e+00  -3.7894224389039524e-04 -8.5452288959447624e-04 0.0000000000000000e+00  5.5182779183488525e-05 -6.6551273355300083e-04 0.0000000000000000e+00  -2.5365490414289336e-05 -8.7922131255251546e-04 0.0000000000000000e+00  4.0840176120080819e-04 -6.5504896662661369e-04 0.0000000000000000e+00  3.3796299323908931e-04 -8.7212037658640257e-04 0.0000000000000000e+00  7.5610579355676140e-04 -6.1921557562341319e-04 0.0000000000000000e+00  6.9833810699577450e-04 -8.3169337405316344e-04 0.0000000000000000e+00  1.0852121895240775e-03 -5.5791960022461950e-04 0.0000000000000000e+00  1.0421691721586143e-03 -7.5738029170356060e-04 0.0000000000000000e+00  1.3819229721695205e-03 -4.7199758333901873e-04 0.0000000000000000e+00  1.3550717325504238e-03 -6.4975100557730452e-04 0.0000000000000000e+00  1.6307494968654181e-03 -3.6352321419426002e-04 0.0000000000000000e+00  1.6210483741395890e-03 -5.1078348920232221e-04 0.0000000000000000e+00  1.8100267493943688e-03 -2.3722604453219374e-04 0.0000000000000000e+00  1.8181926668557119e-03 -3.4508078979197509e-04 0.0000000000000000e+00  1.8821441053295707e-03 -1.1024018103216360e-04 0.0000000000000000e+00  1.9041838852129468e-03 -1.6786277261782455e-04 0.0000000000000000e+00  1.8165499904069040e-03 -4.9551000675632517e-05 0.0000000000000000e+00  1.8131340180078672e-03 -6.7455796266961910e-05 0.0000000000000000e+00  2.0461503296012964e-03 3.8430400177821616e-04 0.0000000000000000e+00  2.0777294083211073e-03 2.5826865459414742e-04 0.0000000000000000e+00  1.8861558034230126e-03 6.5141240368596517e-04 0.0000000000000000e+00  1.6528521317798936e-03 8.8729319566700326e-04 0.0000000000000000e+00  1.3573396781598999e-03 1.0759420112070091e-03 0.0000000000000000e+00  1.0150030973424969e-03 1.2134457552077020e-03 0.0000000000000000e+00  6.4172160124295618e-04 1.2985538684873814e-03 0.0000000000000000e+00  2.5307636481151322e-04 1.3317073252095875e-03 0.0000000000000000e+00  -1.3617883955833020e-04 1.3148415491374707e-03 0.0000000000000000e+00  -5.1224721556077069e-04 1.2511336234148935e-03 0.0000000000000000e+00  -8.6272653317018136e-04 1.1448296885553232e-03 0.0000000000000000e+00  -1.1766196851618420e-03 1.0009812215248952e-03 0.0000000000000000e+00  -1.4446072473305693e-03 8.2529093899883410e-04 0.0000000000000000e+00  -1.6589775951050766e-03 6.2389553720981880e-04 0.0000000000000000e+00  -1.8137694254871958e-03 4.0326571606235734e-04 0.0000000000000000e+00  -1.9046843903731125e-03 1.7006131345578582e-04 0.0000000000000000e+00  -1.9291643857314604e-03 -6.8917559524977611e-05 0.0000000000000000e+00  -1.8863257789818308e-03 -3.0681836304950359e-04 0.0000000000000000e+00  -1.7770209121942950e-03 -5.3676424017142703e-04 0.0000000000000000e+00  -1.6038015511761800e-03 -7.5192674540698178e-04 0.0000000000000000e+00  -1.3709878862028339e-03 -9.4557453739298766e-04 0.0000000000000000e+00  -1.0846291278412763e-03 -1.1111804647496704e-03 0.0000000000000000e+00  -7.5256336439923500e-04 -1.2425277870869763e-03 0.0000000000000000e+00  -3.8432641143461695e-04 -1.3338856908666537e-03 0.0000000000000000e+00  8.8420342625020790e-06 -1.3801874062988110e-03 0.0000000000000000e+00  4.1419888254905912e-04 -1.3772717537327006e-03 0.0000000000000000e+00  8.1759294637709227e-04 -1.3221078481074639e-03 0.0000000000000000e+00  1.2037513851323326e-03 -1.2130579258795703e-03 0.0000000000000000e+00  1.5562069458348053e-03 -1.0501204310840720e-03 0.0000000000000000e+00  1.8562194182898202e-03 -8.3537062895026957e-04 0.0000000000000000e+00  2.0764546832019639e-03 -5.7465890569767498e-04 0.0000000000000000e+00  2.1583060465576007e-03 -2.9010012493083852e-04 0.0000000000000000e+00  2.0068031373745624e-03 -1.4430645248493184e-04 0.0000000000000000e+00  2.5148516347623835e-03 5.5798159755888934e-04 0.0000000000000000e+00  2.5730845569110644e-03 3.7830730223598161e-04 0.0000000000000000e+00  2.3095939473785623e-03 9.5450708263053051e-04 0.0000000000000000e+00  2.0263254206102253e-03 1.3036147718961356e-03 0.0000000000000000e+00  1.6728208384642663e-03 1.5809204392034839e-03 0.0000000000000000e+00  1.2661303077697705e-03 1.7812794589774786e-03 0.0000000000000000e+00  8.2524334734780159e-04 1.9036393836694458e-03 0.0000000000000000e+00  3.6853258655814703e-04 1.9494868627946687e-03 0.0000000000000000e+00  -8.6516640868779129e-05 1.9223450516341603e-03 0.0000000000000000e+00  -5.2416688694720411e-04 1.8274843237524895e-03 0.0000000000000000e+00  -9.3020402514965288e-04 1.6714937219172725e-03 0.0000000000000000e+00  -1.2925283223115898e-03 1.4620232386844713e-03 0.0000000000000000e+00  -1.6007903411750040e-03 1.2074035214741856e-03 0.0000000000000000e+00  -1.8467658412518778e-03 9.1648943768383561e-04 0.0000000000000000e+00  -2.0239820612961853e-03 5.9839484326880573e-04 0.0000000000000000e+00  -2.1279512247238215e-03 2.6244935886030285e-04 0.0000000000000000e+00  -2.1558861208057470e-03 -8.1951490684780922e-05 0.0000000000000000e+00  -2.1068768138264400e-03 -4.2532143948997657e-04 0.0000000000000000e+00  -1.9817168515110623e-03 -7.5816775481389305e-04 0.0000000000000000e+00  -1.7830929658858830e-03 -1.0709688148243498e-03 0.0000000000000000e+00  -1.5154851450568385e-03 -1.3542681449171133e-03 0.0000000000000000e+00  -1.1853905412007597e-03 -1.5987251156002679e-03 0.0000000000000000e+00  -8.0122420451736182e-04 -1.7952944519607854e-03 0.0000000000000000e+00  -3.7354597798770338e-04 -1.9354015663242334e-03 0.0000000000000000e+00  8.5125196929603791e-05 -2.0112480649710864e-03 0.0000000000000000e+00  5.6017074681027435e-04 -2.0161164097600680e-03 0.0000000000000000e+00  1.0352136474528443e-03 -1.9447740835687865e-03 0.0000000000000000e+00  1.4920896798655604e-03 -1.7938472169837609e-03 0.0000000000000000e+00  1.9109588005330380e-03 -1.5622731431085396e-03 0.0000000000000000e+00  2.2684479639232835e-03 -1.2519538317121077e-03 0.0000000000000000e+00  2.5289218213612971e-03 -8.7032905861569312e-04 0.0000000000000000e+00  2.6118464266050158e-03 -4.4932841103916026e-04 0.0000000000000000e+00  2.3902011322590832e-03 -2.4328968716603202e-04 0.0000000000000000e+00  3.2053178874939798e-03 7.7576942991990723e-04 0.0000000000000000e+00  3.2869012500655725e-03 5.2656702624361809e-04 0.0000000000000000e+00  2.9403248671167415e-03 1.3314296413141579e-03 0.0000000000000000e+00  2.5859599703060908e-03 1.8179457133166434e-03 0.0000000000000000e+00  2.1488128377067546e-03 2.2009275787499851e-03 0.0000000000000000e+00  1.6498783964732817e-03 2.4742501003761496e-03 0.0000000000000000e+00  1.1125256695848809e-03 2.6377368128490215e-03 0.0000000000000000e+00  5.5978460010422870e-04 2.6946860455765603e-03 0.0000000000000000e+00  1.2392625432714837e-05 2.6511740919746077e-03 0.0000000000000000e+00  -5.1067068084814193e-04 2.5154108536929076e-03 0.0000000000000000e+00  -9.9340357555920784e-04 2.2972560586295206e-03 0.0000000000000000e+00  -1.4218322215714761e-03 2.0076267444493275e-03 0.0000000000000000e+00  -1.7849216538705867e-03 1.6581799550044038e-03 0.0000000000000000e+00  -2.0735327236172480e-03 1.2608773160007873e-03 0.0000000000000000e+00  -2.2810892090816336e-03 8.2789973971838051e-04 0.0000000000000000e+00  -2.4026773769001836e-03 3.7139831269817448e-04 0.0000000000000000e+00  -2.4355744023000863e-03 -9.6405797653402187e-05 0.0000000000000000e+00  -2.3786131261785788e-03 -5.6333408521038267e-04 0.0000000000000000e+00  -2.2326714672112904e-03 -1.0170845537414621e-03 0.0000000000000000e+00  -2.0002868678274093e-03 -1.4453012853571996e-03 0.0000000000000000e+00  -1.6861861996855057e-03 -1.8354759397559044e-03 0.0000000000000000e+00  -1.2970351339881272e-03 -2.1750842759844678e-03 0.0000000000000000e+00  -8.4202617117841048e-04 -2.4516663209868325e-03 0.0000000000000000e+00  -3.3263406166310263e-04 -2.6531322526598586e-03 0.0000000000000000e+00  2.1681884165294200e-04 -2.7680845266524748e-03 0.0000000000000000e+00  7.8954176815449406e-04 -2.7863315869735188e-03 0.0000000000000000e+00  1.3658897648424976e-03 -2.6994240118524983e-03 0.0000000000000000e+00  1.9238836155431431e-03 -2.5013074076978151e-03 0.0000000000000000e+00  2.4386043136587405e-03 -2.1889982561033609e-03 0.0000000000000000e+00  2.8801313142227721e-03 -1.7636576464096683e-03 0.0000000000000000e+00  3.2009324839963041e-03 -1.2342952445329768e-03 0.0000000000000000e+00  3.2908670799080236e-03 -6.4493069387776714e-04 0.0000000000000000e+00  2.9771247365062612e-03 -3.6143761048288971e-04 0.0000000000000000e+00  4.1703927929245899e-03 1.0528063264848946e-03 0.0000000000000000e+00  4.2719597427571306e-03 7.1557213949855511e-04 0.0000000000000000e+00  3.8269380912690030e-03 1.8072266620287264e-03 0.0000000000000000e+00  3.3756345321679410e-03 2.4623632282821609e-03 0.0000000000000000e+00  2.8250150358590264e-03 2.9720759808190052e-03 0.0000000000000000e+00  2.2016448962762255e-03 3.3298464204872600e-03 0.0000000000000000e+00  1.5360905463425152e-03 3.5374871625795897e-03 0.0000000000000000e+00  8.5663851301925919e-04 3.6015077601213035e-03 0.0000000000000000e+00  1.8941375018254007e-04 3.5319270295019038e-03 0.0000000000000000e+00  -4.4372402724202086e-04 3.3413404609356104e-03 0.0000000000000000e+00  -1.0235684292929476e-03 3.0440521133710853e-03 0.0000000000000000e+00  -1.5352589220114093e-03 2.6553759797399157e-03 0.0000000000000000e+00  -1.9662018124799816e-03 2.1909992403613332e-03 0.0000000000000000e+00  -2.3075321626682163e-03 1.6666689860911439e-03 0.0000000000000000e+00  -2.5520071747067710e-03 1.0978492718202958e-03 0.0000000000000000e+00  -2.6953100368459332e-03 4.9980133451808198e-04 0.0000000000000000e+00  -2.7342839021155699e-03 -1.1252907555370841e-04 0.0000000000000000e+00  -2.6681462267385422e-03 -7.2417636368317438e-04 0.0000000000000000e+00  -2.4972349838042781e-03 -1.3201619454345276e-03 0.0000000000000000e+00  -2.2242108304302952e-03 -1.8851308081875443e-03 0.0000000000000000e+00  -1.8532645228612145e-03 -2.4033901693360509e-03 0.0000000000000000e+00  -1.3913484346124527e-03 -2.8587472143179718e-03 0.0000000000000000e+00  -8.4765386837600042e-04 -3.2347206846096549e-03 0.0000000000000000e+00  -2.3484932887362942e-04 -3.5147435425413286e-03 0.0000000000000000e+00  4.3138163651133311e-04 -3.6826802449568311e-03 0.0000000000000000e+00  1.1312849456879554e-03 -3.7234554515072414e-03 0.0000000000000000e+00  1.8416423543032860e-03 -3.6239029540051939e-03 0.0000000000000000e+00  2.5350510974821916e-03 -3.3737261031763217e-03 0.0000000000000000e+00  3.1800709983919729e-03 -2.9666098739856285e-03 0.0000000000000000e+00  3.7373042994920656e-03 -2.4018630599732917e-03 0.0000000000000000e+00  4.1428292406464036e-03 -1.6897362919283535e-03 0.0000000000000000e+00  4.2455940545699216e-03 -8.8910960501123481e-04 0.0000000000000000e+00  3.8073426857916804e-03 -5.0659318678750349e-04 0.0000000000000000e+00  5.4874574944774835e-03 1.4093700579230885e-03 0.0000000000000000e+00  5.6033737942746877e-03 9.6075574704554000e-04 0.0000000000000000e+00  5.0413463965117405e-03 2.4150768551183233e-03 0.0000000000000000e+00  4.4618081826673745e-03 3.2791818161599646e-03 0.0000000000000000e+00  3.7618378151559671e-03 3.9415060343348969e-03 0.0000000000000000e+00  2.9775460360393592e-03 4.3963398052051959e-03 0.0000000000000000e+00  2.1478648902401795e-03 4.6494001219809233e-03 0.0000000000000000e+00  1.3094924542358226e-03 4.7126084118929304e-03 0.0000000000000000e+00  4.9347028741456207e-04 4.6021464641761234e-03 0.0000000000000000e+00  -2.7327250835703124e-04 4.3370490999769858e-03 0.0000000000000000e+00  -9.7005120499904214e-04 3.9378695560798246e-03 0.0000000000000000e+00  -1.5795762835717326e-03 3.4256916894315676e-03 0.0000000000000000e+00  -2.0900203206969622e-03 2.8213239381639547e-03 0.0000000000000000e+00  -2.4915510349052803e-03 2.1448474627158523e-03 0.0000000000000000e+00  -2.7785665455921740e-03 1.4154318590993557e-03 0.0000000000000000e+00  -2.9461788104829397e-03 6.5132496678150620e-04 0.0000000000000000e+00  -2.9926374084273139e-03 -1.2980882754008049e-04 0.0000000000000000e+00  -2.9162784890794584e-03 -9.1067200315035222e-04 0.0000000000000000e+00  -2.7180173306526911e-03 -1.6737078169185588e-03 0.0000000000000000e+00  -2.3991354881460060e-03 -2.4008835901837633e-03 0.0000000000000000e+00  -1.9637303126752571e-03 -3.0731288161911174e-03 0.0000000000000000e+00  -1.4173686843073120e-03 -3.6703119254189115e-03 0.0000000000000000e+00  -7.6939127463130491e-04 -4.1710991921969807e-03 0.0000000000000000e+00  -3.2182930984616118e-05 -4.5533079725303101e-03 0.0000000000000000e+00  7.7680041504831095e-04 -4.7944155750234540e-03 0.0000000000000000e+00  1.6355361542202617e-03 -4.8724647478226432e-03 0.0000000000000000e+00  2.5159679727155674e-03 -4.7672599926853795e-03 0.0000000000000000e+00  3.3845420201371814e-03 -4.4618228265190388e-03 0.0000000000000000e+00  4.2006178146966723e-03 -3.9441577130362483e-03 0.0000000000000000e+00  4.9122380362211305e-03 -3.2097728177634256e-03 0.0000000000000000e+00  5.4323044769123896e-03 -2.2692751106259440e-03 0.0000000000000000e+00  5.5532338694600147e-03 -1.1999713114494096e-03 0.0000000000000000e+00  4.9431279651191533e-03 -6.9076195224390766e-04 0.0000000000000000e+00  7.2644117697430455e-03 1.8708945797448347e-03 0.0000000000000000e+00  7.3834975849837543e-03 1.2815504798434382e-03 0.0000000000000000e+00  6.6859740160584245e-03 3.1959700283835006e-03 0.0000000000000000e+00  5.9397234806363485e-03 4.3194323548601766e-03 0.0000000000000000e+00  5.0489286441527314e-03 5.1644685032511519e-03 0.0000000000000000e+00  4.0620021348138600e-03 5.7283728186459694e-03 0.0000000000000000e+00  3.0305419686418181e-03 6.0240033224259826e-03 0.0000000000000000e+00  2.0000062108996796e-03 6.0721369315713128e-03 0.0000000000000000e+00  1.0090561680351046e-03 5.8985353904236143e-03 0.0000000000000000e+00  8.7727058571246955e-05 5.5316484936591519e-03 0.0000000000000000e+00  -7.4011268773135929e-04 5.0007879698028652e-03 0.0000000000000000e+00  -1.4581560943742894e-03 4.3346293653888750e-03 0.0000000000000000e+00  -2.0537915216651262e-03 3.5603288074136223e-03 0.0000000000000000e+00  -2.5201117269973055e-03 2.7029327509320773e-03 0.0000000000000000e+00  -2.8511982730920378e-03 1.7854034093254191e-03 0.0000000000000000e+00  -3.0451993211634758e-03 8.2878237044100851e-04 0.0000000000000000e+00  -3.0993355064822320e-03 -1.4719301241141250e-04 0.0000000000000000e+00  -3.0138690773655339e-03 -1.1234202182151562e-03 0.0000000000000000e+00  -2.7875639357818173e-03 -2.0806279245795096e-03 0.0000000000000000e+00  -2.4219709801905345e-03 -2.9984682370114099e-03 0.0000000000000000e+00  -1.9182079535809214e-03 -3.8549180280472565e-03 0.0000000000000000e+00  -1.2809737149021047e-03 -4.6255741155968016e-03 0.0000000000000000e+00  -5.1697984469984597e-04 -5.2835747568335681e-03 0.0000000000000000e+00  3.6165946403705489e-04 -5.7996170749227138e-03 0.0000000000000000e+00  1.3377890673564384e-03 -6.1426594105410568e-03 0.0000000000000000e+00  2.3866532410399448e-03 -6.2810054950188958e-03 0.0000000000000000e+00  3.4758650569448805e-03 -6.1840033175859276e-03 0.0000000000000000e+00  4.5637653275242517e-03 -5.8242278186669350e-03 0.0000000000000000e+00  5.5984607876844224e-03 -5.1801951946288637e-03 0.0000000000000000e+00  6.5104829612561829e-03 -4.2403002225265317e-03 0.0000000000000000e+00  7.1809471623140424e-03 -3.0136354793577165e-03 0.0000000000000000e+00  7.3235315537962054e-03 -1.6003945036888888e-03 0.0000000000000000e+00  6.4724026203133557e-03 -9.2912337020925237e-04 0.0000000000000000e+00  9.6479588822951986e-03 2.4692256148204934e-03 0.0000000000000000e+00  9.7489440598913964e-03 1.7028895147418964e-03 0.0000000000000000e+00  8.8998561781678757e-03 4.2000329694833471e-03 0.0000000000000000e+00  7.9401901187915735e-03 5.6435893092811095e-03 0.0000000000000000e+00  6.8094484988939982e-03 6.7037825231510842e-03 0.0000000000000000e+00  5.5744207056372458e-03 7.3849278269660576e-03 0.0000000000000000e+00  4.3019728296967621e-03 7.7122499679974600e-03 0.0000000000000000e+00  3.0495834526987702e-03 7.7208441084077204e-03 0.0000000000000000e+00  1.8625005844565997e-03 7.4510829493080761e-03 0.0000000000000000e+00  7.7499710910840691e-04 6.9451759765500661e-03 0.0000000000000000e+00  -1.8952992995140147e-04 6.2445118502511259e-03 0.0000000000000000e+00  -1.0152095487987482e-03 5.3877235297970236e-03 0.0000000000000000e+00  -1.6936747259528133e-03 4.4095907124647024e-03 0.0000000000000000e+00  -2.2195806175721111e-03 3.3406339011538711e-03 0.0000000000000000e+00  -2.5920312737410947e-03 2.2072618548264100e-03 0.0000000000000000e+00  -2.8092778875164113e-03 1.0325686841586364e-03 0.0000000000000000e+00  -2.8723139836185443e-03 -1.628412