<?xml version="1.0"?>
<VTKFile type="UnstructuredGrid"  version="0.1"  >
<UnstructuredGrid>
<Piece  NumberOfPoints="759" NumberOfCells="1408">
<Points>
<DataArray  type="Float64"  NumberOfComponents="3"  format="ascii">0 0.46875 0  0.03125 0.46875 0  0.03125 0.515625 0  0 0.515625 0  0.0625 0.46875 0  0.0625 0.515625 0  0.09375 0.46875 0  0.09375 0.515625 0  0.125 0.46875 0  0.125 0.515625 0  0.15625 0.46875 0  0.15625 0.515625 0  0.1875 0.46875 0  0.1875 0.515625 0  0.21875 0.46875 0  0.21875 0.515625 0  0.25 0.46875 0  0.25 0.515625 0  0.28125 0.46875 0  0.28125 0.515625 0  0.3125 0.46875 0  0.3125 0.515625 0  0.34375 0.46875 0  0.34375 0.515625 0  0.375 0.46875 0  0.375 0.515625 0  0.40625 0.46875 0  0.40625 0.515625 0  0.4375 0.46875 0  0.4375 0.515625 0  0.46875 0.46875 0  0.46875 0.515625 0  0.5 0.46875 0  0.5 0.515625 0  0.53125 0.46875 0  0.53125 0.515625 0  0.5625 0.46875 0  0.5625 0.515625 0  0.59375 0.46875 0  0.59375 0.515625 0  0.625 0.46875 0  0.625 0.515625 0  0.65625 0.46875 0  0.65625 0.515625 0  0.6875 0.46875 0  0.6875 0.515625 0  0.71875 0.46875 0  0.71875 0.515625 0  0.75 0.46875 0  0.75 0.515625 0  0.78125 0.46875 0  0.78125 0.515625 0  0.8125 0.46875 0  0.8125 0.515625 0  0.84375 0.46875 0  0.84375 0.515625 0  0.875 0.46875 0  0.875 0.515625 0  0.90625 0.46875 0  0.90625 0.515625 0  0.9375 0.46875 0  0.9375 0.515625 0  0.96875 0.46875 0  0.96875 0.515625 0  1 0.46875 0  1 0.515625 0  0.03125 0.5625 0  0 0.5625 0  0.0625 0.5625 0  0.09375 0.5625 0  0.125 0.5625 0  0.15625 0.5625 0  0.1875 0.5625 0  0.21875 0.5625 0  0.25 0.5625 0  0.28125 0.5625 0  0.3125 0.5625 0  0.34375 0.5625 0  0.375 0.5625 0  0.40625 0.5625 0  0.4375 0.5625 0  0.46875 0.5625 0  0.5 0.5625 0  0.53125 0.5625 0  0.5625 0.5625 0  0.59375 0.5625 0  0.625 0.5625 0  0.65625 0.5625 0  0.6875 0.5625 0  0.71875 0.5625 0  0.75 0.5625 0  0.78125 0.5625 0  0.8125 0.5625 0  0.84375 0.5625 0  0.875 0.5625 0  0.90625 0.5625 0  0.9375 0.5625 0  0.96875 0.5625 0  1 0.5625 0  0.03125 0.609375 0  0 0.609375 0  0.0625 0.609375 0  0.09375 0.609375 0  0.125 0.609375 0  0.15625 0.609375 0  0.1875 0.609375 0  0.21875 0.609375 0  0.25 0.609375 0  0.28125 0.609375 0  0.3125 0.609375 0  0.34375 0.609375 0  0.375 0.609375 0  0.40625 0.609375 0  0.4375 0.609375 0  0.46875 0.609375 0  0.5 0.609375 0  0.53125 0.609375 0  0.5625 0.609375 0  0.59375 0.609375 0  0.625 0.609375 0  0.65625 0.609375 0  0.6875 0.609375 0  0.71875 0.609375 0  0.75 0.609375 0  0.78125 0.609375 0  0.8125 0.609375 0  0.84375 0.609375 0  0.875 0.609375 0  0.90625 0.609375 0  0.9375 0.609375 0  0.96875 0.609375 0  1 0.609375 0  0.03125 0.65625 0  0 0.65625 0  0.0625 0.65625 0  0.09375 0.65625 0  0.125 0.65625 0  0.15625 0.65625 0  0.1875 0.65625 0  0.21875 0.65625 0  0.25 0.65625 0  0.28125 0.65625 0  0.3125 0.65625 0  0.34375 0.65625 0  0.375 0.65625 0  0.40625 0.65625 0  0.4375 0.65625 0  0.46875 0.65625 0  0.5 0.65625 0  0.53125 0.65625 0  0.5625 0.65625 0  0.59375 0.65625 0  0.625 0.65625 0  0.65625 0.65625 0  0.6875 0.65625 0  0.71875 0.65625 0  0.75 0.65625 0  0.78125 0.65625 0  0.8125 0.65625 0  0.84375 0.65625 0  0.875 0.65625 0  0.90625 0.65625 0  0.9375 0.65625 0  0.96875 0.65625 0  1 0.65625 0  0.03125 0.703125 0  0 0.703125 0  0.0625 0.703125 0  0.09375 0.703125 0  0.125 0.703125 0  0.15625 0.703125 0  0.1875 0.703125 0  0.21875 0.703125 0  0.25 0.703125 0  0.28125 0.703125 0  0.3125 0.703125 0  0.34375 0.703125 0  0.375 0.703125 0  0.40625 0.703125 0  0.4375 0.703125 0  0.46875 0.703125 0  0.5 0.703125 0  0.53125 0.703125 0  0.5625 0.703125 0  0.59375 0.703125 0  0.625 0.703125 0  0.65625 0.703125 0  0.6875 0.703125 0  0.71875 0.703125 0  0.75 0.703125 0  0.78125 0.703125 0  0.8125 0.703125 0  0.84375 0.703125 0  0.875 0.703125 0  0.90625 0.703125 0  0.9375 0.703125 0  0.96875 0.703125 0  1 0.703125 0  0.03125 0.75 0  0 0.75 0  0.0625 0.75 0  0.09375 0.75 0  0.125 0.75 0  0.15625 0.75 0  0.1875 0.75 0  0.21875 0.75 0  0.25 0.75 0  0.28125 0.75 0  0.3125 0.75 0  0.34375 0.75 0  0.375 0.75 0  0.40625 0.75 0  0.4375 0.75 0  0.46875 0.75 0  0.5 0.75 0  0.53125 0.75 0  0.5625 0.75 0  0.59375 0.75 0  0.625 0.75 0  0.65625 0.75 0  0.6875 0.75 0  0.71875 0.75 0  0.75 0.75 0  0.78125 0.75 0  0.8125 0.75 0  0.84375 0.75 0  0.875 0.75 0  0.90625 0.75 0  0.9375 0.75 0  0.96875 0.75 0  1 0.75 0  0.03125 0.796875 0  0 0.796875 0  0.0625 0.796875 0  0.09375 0.796875 0  0.125 0.796875 0  0.15625 0.796875 0  0.1875 0.796875 0  0.21875 0.796875 0  0.25 0.796875 0  0.28125 0.796875 0  0.3125 0.796875 0  0.34375 0.796875 0  0.375 0.796875 0  0.40625 0.796875 0  0.4375 0.796875 0  0.46875 0.796875 0  0.5 0.796875 0  0.53125 0.796875 0  0.5625 0.796875 0  0.59375 0.796875 0  0.625 0.796875 0  0.65625 0.796875 0  0.6875 0.796875 0  0.71875 0.796875 0  0.75 0.796875 0  0.78125 0.796875 0  0.8125 0.796875 0  0.84375 0.796875 0  0.875 0.796875 0  0.90625 0.796875 0  0.9375 0.796875 0  0.96875 0.796875 0  1 0.796875 0  0.03125 0.84375 0  0 0.84375 0  0.0625 0.84375 0  0.09375 0.84375 0  0.125 0.84375 0  0.15625 0.84375 0  0.1875 0.84375 0  0.21875 0.84375 0  0.25 0.84375 0  0.28125 0.84375 0  0.3125 0.84375 0  0.34375 0.84375 0  0.375 0.84375 0  0.40625 0.84375 0  0.4375 0.84375 0  0.46875 0.84375 0  0.5 0.84375 0  0.53125 0.84375 0  0.5625 0.84375 0  0.59375 0.84375 0  0.625 0.84375 0  0.65625 0.84375 0  0.6875 0.84375 0  0.71875 0.84375 0  0.75 0.84375 0  0.78125 0.84375 0  0.8125 0.84375 0  0.84375 0.84375 0  0.875 0.84375 0  0.90625 0.84375 0  0.9375 0.84375 0  0.96875 0.84375 0  1 0.84375 0  0.03125 0.890625 0  0 0.890625 0  0.0625 0.890625 0  0.09375 0.890625 0  0.125 0.890625 0  0.15625 0.890625 0  0.1875 0.890625 0  0.21875 0.890625 0  0.25 0.890625 0  0.28125 0.890625 0  0.3125 0.890625 0  0.34375 0.890625 0  0.375 0.890625 0  0.40625 0.890625 0  0.4375 0.890625 0  0.46875 0.890625 0  0.5 0.890625 0  0.53125 0.890625 0  0.5625 0.890625 0  0.59375 0.890625 0  0.625 0.890625 0  0.65625 0.890625 0  0.6875 0.890625 0  0.71875 0.890625 0  0.75 0.890625 0  0.78125 0.890625 0  0.8125 0.890625 0  0.84375 0.890625 0  0.875 0.890625 0  0.90625 0.890625 0  0.9375 0.890625 0  0.96875 0.890625 0  1 0.890625 0  0.03125 0.9375 0  0 0.9375 0  0.0625 0.9375 0  0.09375 0.9375 0  0.125 0.9375 0  0.15625 0.9375 0  0.1875 0.9375 0  0.21875 0.9375 0  0.25 0.9375 0  0.28125 0.9375 0  0.3125 0.9375 0  0.34375 0.9375 0  0.375 0.9375 0  0.40625 0.9375 0  0.4375 0.9375 0  0.46875 0.9375 0  0.5 0.9375 0  0.53125 0.9375 0  0.5625 0.9375 0  0.59375 0.9375 0  0.625 0.9375 0  0.65625 0.9375 0  0.6875 0.9375 0  0.71875 0.9375 0  0.75 0.9375 0  0.78125 0.9375 0  0.8125 0.9375 0  0.84375 0.9375 0  0.875 0.9375 0  0.90625 0.9375 0  0.9375 0.9375 0  0.96875 0.9375 0  1 0.9375 0  0.03125 0.984375 0  0 0.984375 0  0.0625 0.984375 0  0.09375 0.984375 0  0.125 0.984375 0  0.15625 0.984375 0  0.1875 0.984375 0  0.21875 0.984375 0  0.25 0.984375 0  0.28125 0.984375 0  0.3125 0.984375 0  0.34375 0.984375 0  0.375 0.984375 0  0.40625 0.984375 0  0.4375 0.984375 0  0.46875 0.984375 0  0.5 0.984375 0  0.53125 0.984375 0  0.5625 0.984375 0  0.59375 0.984375 0  0.625 0.984375 0  0.65625 0.984375 0  0.6875 0.984375 0  0.71875 0.984375 0  0.75 0.984375 0  0.78125 0.984375 0  0.8125 0.984375 0  0.84375 0.984375 0  0.875 0.984375 0  0.90625 0.984375 0  0.9375 0.984375 0  0.96875 0.984375 0  1 0.984375 0  0.03125 1.03125 0  0 1.03125 0  0.0625 1.03125 0  0.09375 1.03125 0  0.125 1.03125 0  0.15625 1.03125 0  0.1875 1.03125 0  0.21875 1.03125 0  0.25 1.03125 0  0.28125 1.03125 0  0.3125 1.03125 0  0.34375 1.03125 0  0.375 1.03125 0  0.40625 1.03125 0  0.4375 1.03125 0  0.46875 1.03125 0  0.5 1.03125 0  0.53125 1.03125 0  0.5625 1.03125 0  0.59375 1.03125 0  0.625 1.03125 0  0.65625 1.03125 0  0.6875 1.03125 0  0.71875 1.03125 0  0.75 1.03125 0  0.78125 1.03125 0  0.8125 1.03125 0  0.84375 1.03125 0  0.875 1.03125 0  0.90625 1.03125 0  0.9375 1.03125 0  0.96875 1.03125 0  1 1.03125 0  0.03125 1.078125 0  0 1.078125 0  0.0625 1.078125 0  0.09375 1.078125 0  0.125 1.078125 0  0.15625 1.078125 0  0.1875 1.078125 0  0.21875 1.078125 0  0.25 1.078125 0  0.28125 1.078125 0  0.3125 1.078125 0  0.34375 1.078125 0  0.375 1.078125 0  0.40625 1.078125 0  0.4375 1.078125 0  0.46875 1.078125 0  0.5 1.078125 0  0.53125 1.078125 0  0.5625 1.078125 0  0.59375 1.078125 0  0.625 1.078125 0  0.65625 1.078125 0  0.6875 1.078125 0  0.71875 1.078125 0  0.75 1.078125 0  0.78125 1.078125 0  0.8125 1.078125 0  0.84375 1.078125 0  0.875 1.078125 0  0.90625 1.078125 0  0.9375 1.078125 0  0.96875 1.078125 0  1 1.078125 0  0.03125 1.125 0  0 1.125 0  0.0625 1.125 0  0.09375 1.125 0  0.125 1.125 0  0.15625 1.125 0  0.1875 1.125 0  0.21875 1.125 0  0.25 1.125 0  0.28125 1.125 0  0.3125 1.125 0  0.34375 1.125 0  0.375 1.125 0  0.40625 1.125 0  0.4375 1.125 0  0.46875 1.125 0  0.5 1.125 0  0.53125 1.125 0  0.5625 1.125 0  0.59375 1.125 0  0.625 1.125 0  0.65625 1.125 0  0.6875 1.125 0  0.71875 1.125 0  0.75 1.125 0  0.78125 1.125 0  0.8125 1.125 0  0.84375 1.125 0  0.875 1.125 0  0.90625 1.125 0  0.9375 1.125 0  0.96875 1.125 0  1 1.125 0  0.03125 1.171875 0  0 1.171875 0  0.0625 1.171875 0  0.09375 1.171875 0  0.125 1.171875 0  0.15625 1.171875 0  0.1875 1.171875 0  0.21875 1.171875 0  0.25 1.171875 0  0.28125 1.171875 0  0.3125 1.171875 0  0.34375 1.171875 0  0.375 1.171875 0  0.40625 1.171875 0  0.4375 1.171875 0  0.46875 1.171875 0  0.5 1.171875 0  0.53125 1.171875 0  0.5625 1.171875 0  0.59375 1.171875 0  0.625 1.171875 0  0.65625 1.171875 0  0.6875 1.171875 0  0.71875 1.171875 0  0.75 1.171875 0  0.78125 1.171875 0  0.8125 1.171875 0  0.84375 1.171875 0  0.875 1.171875 0  0.90625 1.171875 0  0.9375 1.171875 0  0.96875 1.171875 0  1 1.171875 0  0.03125 1.21875 0  0 1.21875 0  0.0625 1.21875 0  0.09375 1.21875 0  0.125 1.21875 0  0.15625 1.21875 0  0.1875 1.21875 0  0.21875 1.21875 0  0.25 1.21875 0  0.28125 1.21875 0  0.3125 1.21875 0  0.34375 1.21875 0  0.375 1.21875 0  0.40625 1.21875 0  0.4375 1.21875 0  0.46875 1.21875 0  0.5 1.21875 0  0.53125 1.21875 0  0.5
[...]
<PointData  Vectors="u"> 
<DataArray  type="Float64"  Name="u"  NumberOfComponents="3" format="ascii">2.8552614540695732e-03 2.0535235772995661e-04 0.0000000000000000e+00  2.9488705207419306e-03 4.8193845327265314e-04 0.0000000000000000e+00  3.2427226759608745e-03 5.6711642269223906e-04 0.0000000000000000e+00  3.1460583571984745e-03 2.8363579183400198e-04 0.0000000000000000e+00  2.7098689972782173e-03 7.9532773324630024e-04 0.0000000000000000e+00  3.0202558413353468e-03 9.6877752315877052e-04 0.0000000000000000e+00  2.3381419503689339e-03 1.0728413960029465e-03 0.0000000000000000e+00  2.6354350802890317e-03 1.3197816674815066e-03 0.0000000000000000e+00  1.8710743548458742e-03 1.2968333702454836e-03 0.0000000000000000e+00  2.1458262184749274e-03 1.6017461785720979e-03 0.0000000000000000e+00  1.3351175304078412e-03 1.4620257218878338e-03 0.0000000000000000e+00  1.5825801158344166e-03 1.8087634224097854e-03 0.0000000000000000e+00  7.5528762193755408e-04 1.5659393080722328e-03 0.0000000000000000e+00  9.7220480313890104e-04 1.9385961574360730e-03 0.0000000000000000e+00  1.5545268340988412e-04 1.6080995068461163e-03 0.0000000000000000e+00  3.3965144861917138e-04 1.9915175060594005e-03 0.0000000000000000e+00  -4.4199028730183213e-04 1.5899163892280873e-03 0.0000000000000000e+00  -2.9167161623889977e-04 1.9699396938735628e-03 0.0000000000000000e+00  -1.0164243465027310e-03 1.5144829108704873e-03 0.0000000000000000e+00  -9.0029004882781537e-04 1.8781841788924252e-03 0.0000000000000000e+00  -1.5492947003518378e-03 1.3863680018843046e-03 0.0000000000000000e+00  -1.4668633773594684e-03 1.7221829642568617e-03 0.0000000000000000e+00  -2.0242944170321166e-03 1.2113605885878005e-03 0.0000000000000000e+00  -1.9744428673539247e-03 1.5092160591153099e-03 0.0000000000000000e+00  -2.4275136936308976e-03 9.9625093889737278e-04 0.0000000000000000e+00  -2.4085463738998210e-03 1.2476169708595971e-03 0.0000000000000000e+00  -2.7475197675590726e-03 7.4860050289624210e-04 0.0000000000000000e+00  -2.7572831505145974e-03 9.4654470825228235e-04 0.0000000000000000e+00  -2.9754123945219088e-03 4.7655961461294305e-04 0.0000000000000000e+00  -3.0113453847424596e-03 6.1575173561390420e-04 0.0000000000000000e+00  -3.1048428781176151e-03 1.8868950699681321e-04 0.0000000000000000e+00  -3.1640518884903262e-03 2.6541784469607730e-04 0.0000000000000000e+00  -3.1320331984489988e-03 -1.0617732460791222e-04 0.0000000000000000e+00  -3.2113252790275520e-03 -9.4013442829903954e-05 0.0000000000000000e+00  -3.0557822838962467e-03 -3.9907494410490734e-04 0.0000000000000000e+00  -3.1517134986583078e-03 -4.5195452620661004e-04 0.0000000000000000e+00  -2.8774786950161125e-03 -6.8102335318921529e-04 0.0000000000000000e+00  -2.9863787727507727e-03 -7.9780168569983784e-04 0.0000000000000000e+00  -2.6011102183415413e-03 -9.4316018443101849e-04 0.0000000000000000e+00  -2.7191330158853728e-03 -1.1210487668189381e-03 0.0000000000000000e+00  -2.2332769705236954e-03 -1.1768753665557768e-03 0.0000000000000000e+00  -2.3564418115825107e-03 -1.4114302327210273e-03 0.0000000000000000e+00  -1.7831839505227948e-03 -1.3739755415325451e-03 0.0000000000000000e+00  -1.9074588194031750e-03 -1.6590758678318995e-03 0.0000000000000000e+00  -1.2626189303777313e-03 -1.5268651169113657e-03 0.0000000000000000e+00  -1.3840022232554188e-03 -1.8547142417748433e-03 0.0000000000000000e+00  -6.8589110129069002e-04 -1.6287673094006188e-03 0.0000000000000000e+00  -8.0055348171486880e-04 -1.9898996533410989e-03 0.0000000000000000e+00  -6.9732943407233873e-05 -1.6739597870743660e-03 0.0000000000000000e+00  -1.7415487412509979e-04 -2.0572925943238710e-03 0.0000000000000000e+00  5.6686365400269599e-04 -1.6580452517420635e-03 0.0000000000000000e+00  4.7568791129583651e-04 -2.0509537548836021e-03 0.0000000000000000e+00  1.2028408654265951e-03 -1.5782173137152721e-03 0.0000000000000000e+00  1.1272207836055162e-03 -1.9666740071756471e-03 0.0000000000000000e+00  1.8152353028334199e-03 -1.4335514311984120e-03 0.0000000000000000e+00  1.7565782030195436e-03 -1.8022935267471151e-03 0.0000000000000000e+00  2.3788016341454920e-03 -1.2253309075394444e-03 0.0000000000000000e+00  2.3376045882815277e-03 -1.5580680125588304e-03 0.0000000000000000e+00  2.8631628551547862e-03 -9.5771472207172470e-04 0.0000000000000000e+00  2.8395959368698841e-03 -1.2372627743579571e-03 0.0000000000000000e+00  3.2203578597302016e-03 -6.4050954367973409e-04 0.0000000000000000e+00  3.2165198177314556e-03 -8.4846646699919504e-04 0.0000000000000000e+00  3.3502651261280978e-03 -3.0775984880026261e-04 0.0000000000000000e+00  3.3686078412357833e-03 -4.2046258024834013e-04 0.0000000000000000e+00  3.1336088451016770e-03 -9.0654346436956531e-05 0.0000000000000000e+00  3.1026837834299209e-03 -1.2272049609548998e-04 0.0000000000000000e+00  3.7660295625618753e-03 8.1455497964490870e-04 0.0000000000000000e+00  3.7038742823750563e-03 4.5351412942071294e-04 0.0000000000000000e+00  3.4840328250520772e-03 1.4104989595122583e-03 0.0000000000000000e+00  3.0485286545929614e-03 1.9268566370329047e-03 0.0000000000000000e+00  2.4992969278816628e-03 2.3358060675309970e-03 0.0000000000000000e+00  1.8690400837933234e-03 2.6314969914344663e-03 0.0000000000000000e+00  1.1878725115737955e-03 2.8130238165388114e-03 0.0000000000000000e+00  4.8394814265884551e-04 2.8826680182007149e-03 0.0000000000000000e+00  -2.1675374813820894e-04 2.8454811480111198e-03 0.0000000000000000e+00  -8.9049653168386746e-04 2.7088292717223012e-03 0.0000000000000000e+00  -1.5162542806701931e-03 2.4820363091738124e-03 0.0000000000000000e+00  -2.0756641904190257e-03 2.1759292079687447e-03 0.0000000000000000e+00  -2.5532880088626969e-03 1.8025273939763151e-03 0.0000000000000000e+00  -2.9364645141781412e-03 1.3746765930126548e-03 0.0000000000000000e+00  -3.2154157702327423e-03 9.0584162141176656e-04 0.0000000000000000e+00  -3.3830933461254050e-03 4.0986538532928479e-04 0.0000000000000000e+00  -3.4352334730393124e-03 -9.9141715534359999e-05 0.0000000000000000e+00  -3.3702548884107942e-03 -6.0694695834344900e-04 0.0000000000000000e+00  -3.1893262108578209e-03 -1.0992627653266306e-03 0.0000000000000000e+00  -2.8963370052157681e-03 -1.5618672103455064e-03 0.0000000000000000e+00  -2.4980110777848680e-03 -1.9807013282122457e-03 0.0000000000000000e+00  -2.0039051973200659e-03 -2.3420486542609763e-03 0.0000000000000000e+00  -1.4265399597692418e-03 -2.6327296150391406e-03 0.0000000000000000e+00  -7.8136352572901792e-04 -2.8404005743847493e-03 0.0000000000000000e+00  -8.6834926230934536e-05 -2.9538773079668952e-03 0.0000000000000000e+00  6.3574027002174821e-04 -2.9635582460072001e-03 0.0000000000000000e+00  1.3622419810679573e-03 -2.8618465020369033e-03 0.0000000000000000e+00  2.0659646645038035e-03 -2.6436370368289161e-03 0.0000000000000000e+00  2.7171727052601969e-03 -2.3068046920657129e-03 0.0000000000000000e+00  3.2802522577471639e-03 -1.8530469560472777e-03 0.0000000000000000e+00  3.6990959574548679e-03 -1.2910110054757847e-03 0.0000000000000000e+00  3.8421023686213639e-03 -6.5909781717695185e-04 0.0000000000000000e+00  3.4486519774840838e-03 -2.5908787602205098e-04 0.0000000000000000e+00  4.6138088716027436e-03 1.1342628307379730e-03 0.0000000000000000e+00  4.5639273970911609e-03 6.4780631935367676e-04 0.0000000000000000e+00  4.2598498165549656e-03 1.9739134883355767e-03 0.0000000000000000e+00  3.7400811938729434e-03 2.6973113274534949e-03 0.0000000000000000e+00  3.0925224618926512e-03 3.2642352622903031e-03 0.0000000000000000e+00  2.3534307304553604e-03 3.6686249878879929e-03 0.0000000000000000e+00  1.5581912775135733e-03 3.9115892805957342e-03 0.0000000000000000e+00  7.3975905547044095e-04 3.9985415900955397e-03 0.0000000000000000e+00  -7.1423821785894471e-05 3.9383054816588244e-03 0.0000000000000000e+00  -8.4836304000741663e-04 3.7425595930473980e-03 0.0000000000000000e+00  -1.5671614220425839e-03 3.4251439004870897e-03 0.0000000000000000e+00  -2.2076259704930205e-03 3.0015892332986502e-03 0.0000000000000000e+00  -2.7527355495201846e-03 2.4885315101685055e-03 0.0000000000000000e+00  -3.1889835357513910e-03 1.9034196760117632e-03 0.0000000000000000e+00  -3.5058361153751326e-03 1.2641258796806613e-03 0.0000000000000000e+00  -3.6959286636368389e-03 5.8884584323780375e-04 0.0000000000000000e+00  -3.7546682925190967e-03 -1.0410411915321897e-04 0.0000000000000000e+00  -3.6804038219330000e-03 -7.9626564657498192e-04 0.0000000000000000e+00  -3.4742075970492716e-03 -1.4691380919443291e-03 0.0000000000000000e+00  -3.1401199033794626e-03 -2.1041489251705961e-03 0.0000000000000000e+00  -2.6850730937215987e-03 -2.6827712349233417e-03 0.0000000000000000e+00  -2.1192272633771439e-03 -3.1866027944326639e-03 0.0000000000000000e+00  -1.4559404192786378e-03 -3.5976233413519201e-03 0.0000000000000000e+00  -7.1214970661979515e-04 -3.8984721821093988e-03 0.0000000000000000e+00  9.1734249630967074e-05 -4.0729168741671980e-03 0.0000000000000000e+00  9.3153802252880368e-04 -4.1063519793978513e-03 0.0000000000000000e+00  1.7796062542914516e-03 -3.9864545286823101e-03 0.0000000000000000e+00  2.6045973677111581e-03 -3.7038344268221154e-03 0.0000000000000000e+00  3.3711391876638992e-03 -3.2528335349834661e-03 0.0000000000000000e+00  4.0355790566483640e-03 -2.6327436896979011e-03 0.0000000000000000e+00  4.5263555287213290e-03 -1.8524474958147110e-03 0.0000000000000000e+00  4.6685670988225233e-03 -9.6448388389538888e-04 0.0000000000000000e+00  4.1251995036130085e-03 -4.2775456274968515e-04 0.0000000000000000e+00  5.8333565671887470e-03 1.5273381939179718e-03 0.0000000000000000e+00  5.7724414107351513e-03 8.7959533572886381e-04 0.0000000000000000e+00  5.3892616276783279e-03 2.6618494047755338e-03 0.0000000000000000e+00  4.7538690725989902e-03 3.6325710175311547e-03 0.0000000000000000e+00  3.9696504228413226e-03 4.3851028659253966e-03 0.0000000000000000e+00  3.0801583710692521e-03 4.9140281447845515e-03 0.0000000000000000e+00  2.1282084909222607e-03 5.2238485055820603e-03 0.0000000000000000e+00  1.1541148801332652e-03 5.3245874868547522e-03 0.0000000000000000e+00  1.9363398139468692e-04 5.2305181856814884e-03 0.0000000000000000e+00  -7.2128406291102555e-04 4.9591150000449580e-03 0.0000000000000000e+00  -1.5638224331160347e-03 4.5302408568562869e-03 0.0000000000000000e+00  -2.3110186268367151e-03 3.9652583325950896e-03 0.0000000000000000e+00  -2.9446954224643840e-03 3.2865054326103511e-03 0.0000000000000000e+00  -3.4500643374965802e-03 2.5166833337560940e-03 0.0000000000000000e+00  -3.8163710990058294e-03 1.6786982759498074e-03 0.0000000000000000e+00  -4.0357007602428146e-03 7.9535170253717776e-04 0.0000000000000000e+00  -4.1035127938885540e-03 -1.1052454851063322e-04 0.0000000000000000e+00  -4.0178226007671130e-03 -1.0161619543750176e-03 0.0000000000000000e+00  -3.7797604506166599e-03 -1.8986027414364239e-03 0.0000000000000000e+00  -3.3931344544063983e-03 -2.7347275295739534e-03 0.0000000000000000e+00  -2.8651232626518411e-03 -3.5010877337474872e-03 0.0000000000000000e+00  -2.2060718639722462e-03 -4.1740413082759914e-03 0.0000000000000000e+00  -1.4303262022983512e-03 -4.7298458550500255e-03 0.0000000000000000e+00  -5.5610003123324593e-04 -5.1450647414560697e-03 0.0000000000000000e+00  3.9366978906822615e-04 -5.3970325570059947e-03 0.0000000000000000e+00  1.3915954176861769e-03 -5.4646070291364014e-03 0.0000000000000000e+00  2.4051728169830443e-03 -5.3289976638129666e-03 0.0000000000000000e+00  3.3971528661263101e-03 -4.9748012626458400e-03 0.0000000000000000e+00  4.3241586942000801e-03 -4.3911501746718594e-03 0.0000000000000000e+00  5.1315556518532887e-03 -3.5736124276638274e-03 0.0000000000000000e+00  5.7263753097534171e-03 -2.5307641425317473e-03 0.0000000000000000e+00  5.8760573769427536e-03 -1.3320175156366378e-03 0.0000000000000000e+00  5.1356947426852290e-03 -6.2068028016119652e-04 0.0000000000000000e+00  7.4990297083429216e-03 2.0146034981095543e-03 0.0000000000000000e+00  7.3995737004642669e-03 1.1659928850341870e-03 0.0000000000000000e+00  6.9424668903051026e-03 3.5092181896323677e-03 0.0000000000000000e+00  6.1560394795850196e-03 4.7770801138734319e-03 0.0000000000000000e+00  5.1940132463684594e-03 5.7479847707017770e-03 0.0000000000000000e+00  4.1102723013350211e-03 6.4186118366822342e-03 0.0000000000000000e+00  2.9588086583856423e-03 6.7989868995817545e-03 0.0000000000000000e+00  1.7882124296583783e-03 6.9061580201917510e-03 0.0000000000000000e+00  6.4217741145716517e-04 6.7621821048024239e-03 0.0000000000000000e+00  -4.4283241466720925e-04 6.3926284492756592e-03 0.0000000000000000e+00  -1.4354627999889416e-03 5.8252667023454812e-03 0.0000000000000000e+00  -2.3112668048469649e-03 5.0890101553410852e-03 0.0000000000000000e+00  -3.0500013829019164e-03 4.2130185223483380e-03 0.0000000000000000e+00  -3.6371460113725890e-03 3.2262344745425269e-03 0.0000000000000000e+00  -4.0611804643656043e-03 2.1569599513853329e-03 0.0000000000000000e+00  -4.3149604764377951e-03 1.0329784336660763e-03 0.0000000000000000e+00  -4.3934762195230338e-03 -1.1849907995836726e-04 0.0000000000000000e+00  -4.2952039597201628e-03 -1.2703265364482697e-03 0.0000000000000000e+00  -4.0205709111982690e-03 -2.3953016451607628e-03 0.0000000000000000e+00  -3.5734109465464748e-03 -3.4655958059649477e-03 0.0000000000000000e+00  -2.9600962073172022e-03 -4.4526775874219075e-03 0.0000000000000000e+00  -2.1911406295044050e-03 -5.3270136680673699e-03 0.0000000000000000e+00  -1.2807528789984606e-03 -6.0582617167203191e-03 0.0000000000000000e+00  -2.4854955073053402e-04 -6.6154949265360575e-03 0.0000000000000000e+00  8.8074619163276615e-04 -6.9678739981973124e-03 0.0000000000000000e+00  2.0757622436996942e-03 -7.0855172728336840e-03 0.0000000000000000e+00  3.2989068536610241e-03 -6.9407263449843123e-03 0.0000000000000000e+00  4.5051184741861944e-03 -6.5094363477589271e-03 0.0000000000000000e+00  5.6411389532146534e-03 -5.7729959430208424e-03 0.0000000000000000e+00  6.6372898100542470e-03 -4.7209576452216257e-03 0.0000000000000000e+00  7.3719894926028394e-03 -3.3602636704993740e-03 0.0000000000000000e+00  7.5348721838959503e-03 -1.7801388008502818e-03 0.0000000000000000e+00  6.5301977246121912e-03 -8.4960458410088507e-04 0.0000000000000000e+00  9.7208530633589273e-03 2.6226011039259234e-03 0.0000000000000000e+00  9.5450924888575844e-03 1.5260471503381950e-03 0.0000000000000000e+00  9.0255122377835770e-03 4.5598969597745133e-03 0.0000000000000000e+00  8.0488357688141034e-03 6.1864165483954099e-03 0.0000000000000000e+00  6.8641033054692054e-03 7.4140763365359843e-03 0.0000000000000000e+00  5.5412291333355058e-03 8.2442031946795627e-03 0.0000000000000000e+00  4.1470139435094153e-03 8.6956954141459847e-03 0.0000000000000000e+00  2.7420873973510690e-03 8.7962200979899135e-03 0.0000000000000000e+00  1.3773928705775183e-03 8.5790888651839526e-03 0.0000000000000000e+00  9.6319892716872509e-05 8.0811140358883725e-03 0.0000000000000000e+00  -1.0675426646523246e-03 7.3406629670643847e-03 0.0000000000000000e+00  -2.0866837198796626e-03 6.3962555777809906e-03 0.0000000000000000e+00  -2.9418220864736145e-03 5.2854459166609734e-03 0.0000000000000000e+00  -3.6174577444555156e-03 4.0442432148472705e-03 0.0000000000000000e+00  -4.1042543860891354e-03 2.7069040717601182e-03 0.0000000000000000e+00  -4.3945981590322305e-03 1.3060296516552833e-03 0.0000000000000000e+00  -4.4853069589450784e-03 -1.2688402708590086e-04 0.0000000000000000e+00  -4.3738516494478685e-03 -1.5609794341909721e-03 0.0000000000000000e+00  -4.0612697183970191e-03 -2.9650631011333348e-03 0.0000000000000000e+00  -3.5495394897878574e-03 -4.3071053322180806e-03 0.0000000000000000e+00  -2.8446001110456814e-03 -5.5533341113330843e-03 0.0000000000000000e+00  -1.9549059460516657e-03 -6.6680065738965880e-03 0.0000000000000000e+00  -8.9442391760344699e-04 -7.6130783582165767e-03 0.0000000000000000e+00  3.1793854759834973e-04 -8.3485374930078078e-03 0.0000000000000000e+00  1.6555479830343092e-03 -8.8329977195248949e-03 0.0000000000000000e+00  3.0842677161597980e-03 -9.0248733537522108e-03 0.0000000000000000e+00  4.5602531937106259e-03 -8.8840130570481644e-03 0.0000000000000000e+00  6.0300402987013210e-03 -8.3737920254340955e-03 0.0000000000000000e+00  7.4273735534909355e-03 -7.4637785750006095e-03 0.0000000000000000e+00  8.6634749077674610e-03 -6.1338192150832407e-03 0.0000000000000000e+00  9.5780564228604703e-03 -4.3867243484789322e-03 0.0000000000000000e+00  9.7561194725968303e-03 -2.3349705223389317e-03 0.0000000000000000e+00  8.3924208853328325e-03 -1.1313832854662827e-03 0.0000000000000000e+00  1.2649248778013163e-02 3.3817633491313487e-03 0.0000000000000000e+00  1.2341590919143670e-02 1.9816293314209505e-03 0.0000000000000000e+00  1.1786769687350332e-02 5.8633298470911702e-03 0.0000000000000000e+00  1.0576543443288634e-02 7.9213266402639107e-03 0.0000000000000000e+00  9.1229133179838995e-03 9.4478048747052828e-03 0.0000000000000000e+00  7.5159289412401100e-03 1.0452861002406390e-02 0.0000000000000000e+00  5.8403047846223568e-03 1.0969505184680223e-02 0.0000000000000000e+00  4.1688519448681138e-03 1.1041301522490376e-02 0.0000000000000000e+00  2.5626149054784730e-03 1.0717875216799030e-02 0.0000000000000000e+00  1.0691385794086418e-03 1.0051595448009164e-02 0.0000000000000000e+00  -2.7415813332775773e-04 9.0950159044123381e-03 0.0000000000000000e+00  -1.4412062639857217e-03 7.8988298378561000e-03 0.0000000000000000e+00  -2.4122340161294802e-03 6.5107061693538961e-03 0.0000000000000000e+00  -3.1757631304325015e-03 4.9745631227298597e-03 0.0000000000000000e+00  -3.7225884298600627e-03 3.3307107779449890e-03 0.0000000000000000e+00  -4.0491514086111718e-03 1.6162148743473707e-03 0.0000000000000000e+00  -4.1513224181033617e-03 -1.3408902968215351e-04 0.0000000000000000e+00  -4.0289813211659350e-03 -1.8864933554189212e-03 0.0000000000000000e+00  -3.6804947278089089e-03 -3.6070884887157710e-03 0.0000000000000000e+00  -3.1078574705716024e-03 -5.2603101042491334e-03 0.0000000000000000e+00  -2.3129394909756225e-03 -6.8078477838085568e-03 0.0000000000000000e+00  -1.3024823295917120e-03 -8.2074603179269189e-03 0.0000000000000000e+00  -8.6509070041564340e-05 -9.4125944279552128e-03 0.0000000000000000e+00  1.3172306539855330e-03 -1.0372192529795883e-02 0.0000000000000000e+00  2.8832420127574291e-03 -1.1031424150337369e-02 0.0000000000000000e+00  4.5746938763391700e-03 -1.1332995525497727e-02 0.0000000000000000e+00  6.3427763649589195e-03 -1.1219350685964000e-02 0.0000000000000000e+00  8.1239281938446806e-03 -1.0635642076422988e-02 0.0000000000000000e+00  9.8369519026509436e-03 -9.5336208691289941e-03 0.0000000000000000e+00  1.1368034774243965e-02 -7.8776577714158216e-03 0.0000000000000000e+00  1.2505940190302363e-02 -5.6621481611148616e-03 0.0000000000000000e+00  1.2694748296231923e-02 -3.0266188177987263e-03 0.0000000000000000e+00  1.0839580010395880e-02 -1.4853749599623479e-03 0.0000000000000000e+00  1.6481717013016518e-02 4.3263481115466771e-03 0.0000000000000000e+00  1.5959334854559935e-02 2.5584568509898916e-03 0.0000000000000000e+00  1.5421505236255796e-02 7.4734703398095931e-03 0.0000000000000000e+00  1.3931509978960406e-02 1.0045227823558007e-02 0.0000000000000000e+00  1.2161682965148104e-02 1.1912365085901272e-02 0.0000000000000000e+00  1.0230016922782959e-02 1.3100459573213586e-02 0.0000000000000000e+00  8.2417941983099329e-03 1.3664506830333715e-02 0.0000000000000000e+00  6.2852473102255769e-03 1.3671826844795700e-02 0.0000000000000000e+00  4.4296037811007594e-03 1.3195413799926798e-02 0.0000000000000000e+00  2.7272454290657730e-03 1.2309181686196592e-02 0.0000000000000000e+00  1.2144183211621601e-03 1.1084389283169257e-02 0.0000000000000000e+00  -8.4183699106360127e-05 9.5870886053726467e-03 0.0000000000000000e+00  -1.1548432346484402e-03 7.8767413533009471e-03 0.0000000000000000e+00  -1.9889356321269622e-03 6.0057961114018434e-03 0.0000000000000000e+00  -2.5841634479392781e-03 4.0200550645616128e-03 0.0000000000000000e+00  -2.9378075767858640e-03 1.9599383861387712e-03 0.0000000000000000e+00  -3.0507445468006566e-03 -1.3814863