<?xml version="1.0"?>
<VTKFile type="UnstructuredGrid"  version="0.1"  >
<UnstructuredGrid>
<Piece  NumberOfPoints="759" NumberOfCells="1408">
<Points>
<DataArray  type="Float64"  NumberOfComponents="3"  format="ascii">0 0.46875 0  0.03125 0.46875 0  0.03125 0.515625 0  0 0.515625 0  0.0625 0.46875 0  0.0625 0.515625 0  0.09375 0.46875 0  0.09375 0.515625 0  0.125 0.46875 0  0.125 0.515625 0  0.15625 0.46875 0  0.15625 0.515625 0  0.1875 0.46875 0  0.1875 0.515625 0  0.21875 0.46875 0  0.21875 0.515625 0  0.25 0.46875 0  0.25 0.515625 0  0.28125 0.46875 0  0.28125 0.515625 0  0.3125 0.46875 0  0.3125 0.515625 0  0.34375 0.46875 0  0.34375 0.515625 0  0.375 0.46875 0  0.375 0.515625 0  0.40625 0.46875 0  0.40625 0.515625 0  0.4375 0.46875 0  0.4375 0.515625 0  0.46875 0.46875 0  0.46875 0.515625 0  0.5 0.46875 0  0.5 0.515625 0  0.53125 0.46875 0  0.53125 0.515625 0  0.5625 0.46875 0  0.5625 0.515625 0  0.59375 0.46875 0  0.59375 0.515625 0  0.625 0.46875 0  0.625 0.515625 0  0.65625 0.46875 0  0.65625 0.515625 0  0.6875 0.46875 0  0.6875 0.515625 0  0.71875 0.46875 0  0.71875 0.515625 0  0.75 0.46875 0  0.75 0.515625 0  0.78125 0.46875 0  0.78125 0.515625 0  0.8125 0.46875 0  0.8125 0.515625 0  0.84375 0.46875 0  0.84375 0.515625 0  0.875 0.46875 0  0.875 0.515625 0  0.90625 0.46875 0  0.90625 0.515625 0  0.9375 0.46875 0  0.9375 0.515625 0  0.96875 0.46875 0  0.96875 0.515625 0  1 0.46875 0  1 0.515625 0  0.03125 0.5625 0  0 0.5625 0  0.0625 0.5625 0  0.09375 0.5625 0  0.125 0.5625 0  0.15625 0.5625 0  0.1875 0.5625 0  0.21875 0.5625 0  0.25 0.5625 0  0.28125 0.5625 0  0.3125 0.5625 0  0.34375 0.5625 0  0.375 0.5625 0  0.40625 0.5625 0  0.4375 0.5625 0  0.46875 0.5625 0  0.5 0.5625 0  0.53125 0.5625 0  0.5625 0.5625 0  0.59375 0.5625 0  0.625 0.5625 0  0.65625 0.5625 0  0.6875 0.5625 0  0.71875 0.5625 0  0.75 0.5625 0  0.78125 0.5625 0  0.8125 0.5625 0  0.84375 0.5625 0  0.875 0.5625 0  0.90625 0.5625 0  0.9375 0.5625 0  0.96875 0.5625 0  1 0.5625 0  0.03125 0.609375 0  0 0.609375 0  0.0625 0.609375 0  0.09375 0.609375 0  0.125 0.609375 0  0.15625 0.609375 0  0.1875 0.609375 0  0.21875 0.609375 0  0.25 0.609375 0  0.28125 0.609375 0  0.3125 0.609375 0  0.34375 0.609375 0  0.375 0.609375 0  0.40625 0.609375 0  0.4375 0.609375 0  0.46875 0.609375 0  0.5 0.609375 0  0.53125 0.609375 0  0.5625 0.609375 0  0.59375 0.609375 0  0.625 0.609375 0  0.65625 0.609375 0  0.6875 0.609375 0  0.71875 0.609375 0  0.75 0.609375 0  0.78125 0.609375 0  0.8125 0.609375 0  0.84375 0.609375 0  0.875 0.609375 0  0.90625 0.609375 0  0.9375 0.609375 0  0.96875 0.609375 0  1 0.609375 0  0.03125 0.65625 0  0 0.65625 0  0.0625 0.65625 0  0.09375 0.65625 0  0.125 0.65625 0  0.15625 0.65625 0  0.1875 0.65625 0  0.21875 0.65625 0  0.25 0.65625 0  0.28125 0.65625 0  0.3125 0.65625 0  0.34375 0.65625 0  0.375 0.65625 0  0.40625 0.65625 0  0.4375 0.65625 0  0.46875 0.65625 0  0.5 0.65625 0  0.53125 0.65625 0  0.5625 0.65625 0  0.59375 0.65625 0  0.625 0.65625 0  0.65625 0.65625 0  0.6875 0.65625 0  0.71875 0.65625 0  0.75 0.65625 0  0.78125 0.65625 0  0.8125 0.65625 0  0.84375 0.65625 0  0.875 0.65625 0  0.90625 0.65625 0  0.9375 0.65625 0  0.96875 0.65625 0  1 0.65625 0  0.03125 0.703125 0  0 0.703125 0  0.0625 0.703125 0  0.09375 0.703125 0  0.125 0.703125 0  0.15625 0.703125 0  0.1875 0.703125 0  0.21875 0.703125 0  0.25 0.703125 0  0.28125 0.703125 0  0.3125 0.703125 0  0.34375 0.703125 0  0.375 0.703125 0  0.40625 0.703125 0  0.4375 0.703125 0  0.46875 0.703125 0  0.5 0.703125 0  0.53125 0.703125 0  0.5625 0.703125 0  0.59375 0.703125 0  0.625 0.703125 0  0.65625 0.703125 0  0.6875 0.703125 0  0.71875 0.703125 0  0.75 0.703125 0  0.78125 0.703125 0  0.8125 0.703125 0  0.84375 0.703125 0  0.875 0.703125 0  0.90625 0.703125 0  0.9375 0.703125 0  0.96875 0.703125 0  1 0.703125 0  0.03125 0.75 0  0 0.75 0  0.0625 0.75 0  0.09375 0.75 0  0.125 0.75 0  0.15625 0.75 0  0.1875 0.75 0  0.21875 0.75 0  0.25 0.75 0  0.28125 0.75 0  0.3125 0.75 0  0.34375 0.75 0  0.375 0.75 0  0.40625 0.75 0  0.4375 0.75 0  0.46875 0.75 0  0.5 0.75 0  0.53125 0.75 0  0.5625 0.75 0  0.59375 0.75 0  0.625 0.75 0  0.65625 0.75 0  0.6875 0.75 0  0.71875 0.75 0  0.75 0.75 0  0.78125 0.75 0  0.8125 0.75 0  0.84375 0.75 0  0.875 0.75 0  0.90625 0.75 0  0.9375 0.75 0  0.96875 0.75 0  1 0.75 0  0.03125 0.796875 0  0 0.796875 0  0.0625 0.796875 0  0.09375 0.796875 0  0.125 0.796875 0  0.15625 0.796875 0  0.1875 0.796875 0  0.21875 0.796875 0  0.25 0.796875 0  0.28125 0.796875 0  0.3125 0.796875 0  0.34375 0.796875 0  0.375 0.796875 0  0.40625 0.796875 0  0.4375 0.796875 0  0.46875 0.796875 0  0.5 0.796875 0  0.53125 0.796875 0  0.5625 0.796875 0  0.59375 0.796875 0  0.625 0.796875 0  0.65625 0.796875 0  0.6875 0.796875 0  0.71875 0.796875 0  0.75 0.796875 0  0.78125 0.796875 0  0.8125 0.796875 0  0.84375 0.796875 0  0.875 0.796875 0  0.90625 0.796875 0  0.9375 0.796875 0  0.96875 0.796875 0  1 0.796875 0  0.03125 0.84375 0  0 0.84375 0  0.0625 0.84375 0  0.09375 0.84375 0  0.125 0.84375 0  0.15625 0.84375 0  0.1875 0.84375 0  0.21875 0.84375 0  0.25 0.84375 0  0.28125 0.84375 0  0.3125 0.84375 0  0.34375 0.84375 0  0.375 0.84375 0  0.40625 0.84375 0  0.4375 0.84375 0  0.46875 0.84375 0  0.5 0.84375 0  0.53125 0.84375 0  0.5625 0.84375 0  0.59375 0.84375 0  0.625 0.84375 0  0.65625 0.84375 0  0.6875 0.84375 0  0.71875 0.84375 0  0.75 0.84375 0  0.78125 0.84375 0  0.8125 0.84375 0  0.84375 0.84375 0  0.875 0.84375 0  0.90625 0.84375 0  0.9375 0.84375 0  0.96875 0.84375 0  1 0.84375 0  0.03125 0.890625 0  0 0.890625 0  0.0625 0.890625 0  0.09375 0.890625 0  0.125 0.890625 0  0.15625 0.890625 0  0.1875 0.890625 0  0.21875 0.890625 0  0.25 0.890625 0  0.28125 0.890625 0  0.3125 0.890625 0  0.34375 0.890625 0  0.375 0.890625 0  0.40625 0.890625 0  0.4375 0.890625 0  0.46875 0.890625 0  0.5 0.890625 0  0.53125 0.890625 0  0.5625 0.890625 0  0.59375 0.890625 0  0.625 0.890625 0  0.65625 0.890625 0  0.6875 0.890625 0  0.71875 0.890625 0  0.75 0.890625 0  0.78125 0.890625 0  0.8125 0.890625 0  0.84375 0.890625 0  0.875 0.890625 0  0.90625 0.890625 0  0.9375 0.890625 0  0.96875 0.890625 0  1 0.890625 0  0.03125 0.9375 0  0 0.9375 0  0.0625 0.9375 0  0.09375 0.9375 0  0.125 0.9375 0  0.15625 0.9375 0  0.1875 0.9375 0  0.21875 0.9375 0  0.25 0.9375 0  0.28125 0.9375 0  0.3125 0.9375 0  0.34375 0.9375 0  0.375 0.9375 0  0.40625 0.9375 0  0.4375 0.9375 0  0.46875 0.9375 0  0.5 0.9375 0  0.53125 0.9375 0  0.5625 0.9375 0  0.59375 0.9375 0  0.625 0.9375 0  0.65625 0.9375 0  0.6875 0.9375 0  0.71875 0.9375 0  0.75 0.9375 0  0.78125 0.9375 0  0.8125 0.9375 0  0.84375 0.9375 0  0.875 0.9375 0  0.90625 0.9375 0  0.9375 0.9375 0  0.96875 0.9375 0  1 0.9375 0  0.03125 0.984375 0  0 0.984375 0  0.0625 0.984375 0  0.09375 0.984375 0  0.125 0.984375 0  0.15625 0.984375 0  0.1875 0.984375 0  0.21875 0.984375 0  0.25 0.984375 0  0.28125 0.984375 0  0.3125 0.984375 0  0.34375 0.984375 0  0.375 0.984375 0  0.40625 0.984375 0  0.4375 0.984375 0  0.46875 0.984375 0  0.5 0.984375 0  0.53125 0.984375 0  0.5625 0.984375 0  0.59375 0.984375 0  0.625 0.984375 0  0.65625 0.984375 0  0.6875 0.984375 0  0.71875 0.984375 0  0.75 0.984375 0  0.78125 0.984375 0  0.8125 0.984375 0  0.84375 0.984375 0  0.875 0.984375 0  0.90625 0.984375 0  0.9375 0.984375 0  0.96875 0.984375 0  1 0.984375 0  0.03125 1.03125 0  0 1.03125 0  0.0625 1.03125 0  0.09375 1.03125 0  0.125 1.03125 0  0.15625 1.03125 0  0.1875 1.03125 0  0.21875 1.03125 0  0.25 1.03125 0  0.28125 1.03125 0  0.3125 1.03125 0  0.34375 1.03125 0  0.375 1.03125 0  0.40625 1.03125 0  0.4375 1.03125 0  0.46875 1.03125 0  0.5 1.03125 0  0.53125 1.03125 0  0.5625 1.03125 0  0.59375 1.03125 0  0.625 1.03125 0  0.65625 1.03125 0  0.6875 1.03125 0  0.71875 1.03125 0  0.75 1.03125 0  0.78125 1.03125 0  0.8125 1.03125 0  0.84375 1.03125 0  0.875 1.03125 0  0.90625 1.03125 0  0.9375 1.03125 0  0.96875 1.03125 0  1 1.03125 0  0.03125 1.078125 0  0 1.078125 0  0.0625 1.078125 0  0.09375 1.078125 0  0.125 1.078125 0  0.15625 1.078125 0  0.1875 1.078125 0  0.21875 1.078125 0  0.25 1.078125 0  0.28125 1.078125 0  0.3125 1.078125 0  0.34375 1.078125 0  0.375 1.078125 0  0.40625 1.078125 0  0.4375 1.078125 0  0.46875 1.078125 0  0.5 1.078125 0  0.53125 1.078125 0  0.5625 1.078125 0  0.59375 1.078125 0  0.625 1.078125 0  0.65625 1.078125 0  0.6875 1.078125 0  0.71875 1.078125 0  0.75 1.078125 0  0.78125 1.078125 0  0.8125 1.078125 0  0.84375 1.078125 0  0.875 1.078125 0  0.90625 1.078125 0  0.9375 1.078125 0  0.96875 1.078125 0  1 1.078125 0  0.03125 1.125 0  0 1.125 0  0.0625 1.125 0  0.09375 1.125 0  0.125 1.125 0  0.15625 1.125 0  0.1875 1.125 0  0.21875 1.125 0  0.25 1.125 0  0.28125 1.125 0  0.3125 1.125 0  0.34375 1.125 0  0.375 1.125 0  0.40625 1.125 0  0.4375 1.125 0  0.46875 1.125 0  0.5 1.125 0  0.53125 1.125 0  0.5625 1.125 0  0.59375 1.125 0  0.625 1.125 0  0.65625 1.125 0  0.6875 1.125 0  0.71875 1.125 0  0.75 1.125 0  0.78125 1.125 0  0.8125 1.125 0  0.84375 1.125 0  0.875 1.125 0  0.90625 1.125 0  0.9375 1.125 0  0.96875 1.125 0  1 1.125 0  0.03125 1.171875 0  0 1.171875 0  0.0625 1.171875 0  0.09375 1.171875 0  0.125 1.171875 0  0.15625 1.171875 0  0.1875 1.171875 0  0.21875 1.171875 0  0.25 1.171875 0  0.28125 1.171875 0  0.3125 1.171875 0  0.34375 1.171875 0  0.375 1.171875 0  0.40625 1.171875 0  0.4375 1.171875 0  0.46875 1.171875 0  0.5 1.171875 0  0.53125 1.171875 0  0.5625 1.171875 0  0.59375 1.171875 0  0.625 1.171875 0  0.65625 1.171875 0  0.6875 1.171875 0  0.71875 1.171875 0  0.75 1.171875 0  0.78125 1.171875 0  0.8125 1.171875 0  0.84375 1.171875 0  0.875 1.171875 0  0.90625 1.171875 0  0.9375 1.171875 0  0.96875 1.171875 0  1 1.171875 0  0.03125 1.21875 0  0 1.21875 0  0.0625 1.21875 0  0.09375 1.21875 0  0.125 1.21875 0  0.15625 1.21875 0  0.1875 1.21875 0  0.21875 1.21875 0  0.25 1.21875 0  0.28125 1.21875 0  0.3125 1.21875 0  0.34375 1.21875 0  0.375 1.21875 0  0.40625 1.21875 0  0.4375 1.21875 0  0.46875 1.21875 0  0.5 1.21875 0  0.53125 1.21875 0  0.5
[...]
<PointData  Vectors="u"> 
<DataArray  type="Float64"  Name="u"  NumberOfComponents="3" format="ascii">1.4116402756073797e-02 7.1452964548962528e-04 0.0000000000000000e+00  1.6277596446236865e-02 3.9893952884847714e-03 0.0000000000000000e+00  1.7909146144478937e-02 4.2714878238859517e-03 0.0000000000000000e+00  1.5337468171903845e-02 9.3240339235944381e-04 0.0000000000000000e+00  1.5726480594130739e-02 7.2650169634633542e-03 0.0000000000000000e+00  1.7523750538785427e-02 7.8605026711411619e-03 0.0000000000000000e+00  1.4635501341306414e-02 1.0194595440841404e-02 0.0000000000000000e+00  1.6218956351815347e-02 1.1032494219203453e-02 0.0000000000000000e+00  1.3206366054267305e-02 1.2658698145488182e-02 0.0000000000000000e+00  1.4558908654635959e-02 1.3675997559242675e-02 0.0000000000000000e+00  1.1547068918829376e-02 1.4591624001257297e-02 0.0000000000000000e+00  1.2696881047582613e-02 1.5729456006328271e-02 0.0000000000000000e+00  9.7472985816070366e-03 1.5949096607493937e-02 0.0000000000000000e+00  1.0721975127619292e-02 1.7154517435401168e-02 0.0000000000000000e+00  7.8853449397995323e-03 1.6707072692799092e-02 0.0000000000000000e+00  8.7091877938102469e-03 1.7933217412228499e-02 0.0000000000000000e+00  6.0301724936270831e-03 1.6861455697696402e-02 0.0000000000000000e+00  6.7244924354874069e-03 1.8067043112107221e-02 0.0000000000000000e+00  4.2423898540282761e-03 1.6426879148141511e-02 0.0000000000000000e+00  4.8257600746134275e-03 1.7575804329164942e-02 0.0000000000000000e+00  2.5748491849105649e-03 1.5435081405757167e-02 0.0000000000000000e+00  3.0635730835420045e-03 1.6495998413927439e-02 0.0000000000000000e+00  1.0731521429167665e-03 1.3932955550719330e-02 0.0000000000000000e+00  1.4814296207813873e-03 1.4879003547696048e-02 0.0000000000000000e+00  -2.2398340322561826e-04 1.1980571576047891e-02 0.0000000000000000e+00  1.1630185316912831e-04 1.2789075337395371e-02 0.0000000000000000e+00  -1.2843372580408411e-03 9.6490978273712242e-03 0.0000000000000000e+00  -1.0012051394137880e-03 1.0301398783887958e-02 0.0000000000000000e+00  -2.0819646123825825e-03 7.0188108368132423e-03 0.0000000000000000e+00  -1.8465187349426342e-03 7.5000801945714901e-03 0.0000000000000000e+00  -2.5969913060039321e-03 4.1770711680698853e-03 0.0000000000000000e+00  -2.4010610884093674e-03 4.4762500220032935e-03 0.0000000000000000e+00  -2.8154923418404346e-03 1.2163837575636942e-03 0.0000000000000000e+00  -2.6520352789393890e-03 1.3261257216553531e-03 0.0000000000000000e+00  -2.7294283868202016e-03 -1.7675759926078262e-03 0.0000000000000000e+00  -2.5925287216876590e-03 -1.8508415550579599e-03 0.0000000000000000e+00  -2.3367054946821183e-03 -4.6779093922551199e-03 0.0000000000000000e+00  -2.2215445546052144e-03 -4.9538919892987065e-03 0.0000000000000000e+00  -1.6412667663100212e-03 -7.4185226278395515e-03 0.0000000000000000e+00  -1.5442392992140487e-03 -7.8828783442162660e-03 0.0000000000000000e+00  -6.5326491528873258e-04 -9.8961971923430970e-03 0.0000000000000000e+00  -5.7210947707857706e-04 -1.0540312350670582e-02 0.0000000000000000e+00  6.1070614722582943e-04 -1.2022795573890899e-02 0.0000000000000000e+00  6.7657754286072473e-04 -1.2833482374489256e-02 0.0000000000000000e+00  2.1273104520941120e-03 -1.3717553400203614e-02 0.0000000000000000e+00  2.1764358815463316e-03 -1.4676740727171556e-02 0.0000000000000000e+00  3.8662200268516091e-03 -1.4909532819867771e-02 0.0000000000000000e+00  3.8944694937649710e-03 -1.5993893319688278e-02 0.0000000000000000e+00  5.7898219019209812e-03 -1.5540151145243467e-02 0.0000000000000000e+00  5.7897038332869509e-03 -1.6720749177323458e-02 0.0000000000000000e+00  7.8529924615859253e-03 -1.5565818376774784e-02 0.0000000000000000e+00  7.8126757699384930e-03 -1.6807715756068608e-02 0.0000000000000000e+00  1.0002713495948260e-02 -1.4960570120849101e-02 0.0000000000000000e+00  9.9050450199697129e-03 -1.6222442095105684e-02 0.0000000000000000e+00  1.2176840110770944e-02 -1.3718709507170761e-02 0.0000000000000000e+00  1.1998426587942439e-02 -1.4952361096179629e-02 0.0000000000000000e+00  1.4298488166844561e-02 -1.1857515553178754e-02 0.0000000000000000e+00  1.4010394761575076e-02 -1.3007187709762443e-02 0.0000000000000000e+00  1.6249774180385011e-02 -9.4210552854060558e-03 0.0000000000000000e+00  1.5825468290193576e-02 -1.0421948698770661e-02 0.0000000000000000e+00  1.7752577795729366e-02 -6.4917821502575327e-03 0.0000000000000000e+00  1.7208733531801666e-02 -7.2655760990494060e-03 0.0000000000000000e+00  1.7927576142908096e-02 -3.2623592034773949e-03 0.0000000000000000e+00  1.7459893045380131e-02 -3.6937575452075325e-03 0.0000000000000000e+00  1.5189945285783272e-02 -3.0009061905541271e-04 0.0000000000000000e+00  1.4590422871360481e-02 -4.1159117846061743e-04 0.0000000000000000e+00  1.9809737244541815e-02 5.0661771305260716e-03 0.0000000000000000e+00  1.7169908042682563e-02 1.3983234330305766e-03 0.0000000000000000e+00  1.9303856695299524e-02 9.3118687059876356e-03 0.0000000000000000e+00  1.7925724899451548e-02 1.3011099454056665e-02 0.0000000000000000e+00  1.6157624951002196e-02 1.6036967002251091e-02 0.0000000000000000e+00  1.4168987062368821e-02 1.8340958703572441e-02 0.0000000000000000e+00  1.2062184926717699e-02 1.9898672950137024e-02 0.0000000000000000e+00  9.9185043418623057e-03 2.0705420933709928e-02 0.0000000000000000e+00  7.8080853551340769e-03 2.0775302750769852e-02 0.0000000000000000e+00  5.7924374810247713e-03 2.0139905655629276e-02 0.0000000000000000e+00  3.9246085408548206e-03 1.8846791368869607e-02 0.0000000000000000e+00  2.2501765421193225e-03 1.6957636438865730e-02 0.0000000000000000e+00  8.0730824027218416e-04 1.4546424623636707e-02 0.0000000000000000e+00  -3.7234804519723451e-04 1.1697471389391917e-02 0.0000000000000000e+00  -1.2637316683786961e-03 8.5036573308010528e-03 0.0000000000000000e+00  -1.8477145324974418e-03 5.0645470853260838e-03 0.0000000000000000e+00  -2.1112140846697995e-03 1.4847279228371152e-03 0.0000000000000000e+00  -2.0468982516027197e-03 -2.1279800750604902e-03 0.0000000000000000e+00  -1.6535180658974495e-03 -5.6641689689981593e-03 0.0000000000000000e+00  -9.3588884428463370e-04 -9.0146731494181627e-03 0.0000000000000000e+00  9.4558536905561390e-05 -1.2072368125675807e-02 0.0000000000000000e+00  1.4194910546151945e-03 -1.4734205889901431e-02 0.0000000000000000e+00  3.0128871061556530e-03 -1.6903315360561801e-02 0.0000000000000000e+00  4.8406516019926854e-03 -1.8491354796311452e-02 0.0000000000000000e+00  6.8597421078167254e-03 -1.9420942365379255e-02 0.0000000000000000e+00  9.0177592421412985e-03 -1.9628260197880852e-02 0.0000000000000000e+00  1.1252072586795890e-02 -1.9065611845607927e-02 0.0000000000000000e+00  1.3488744832739938e-02 -1.7703938394787577e-02 0.0000000000000000e+00  1.5637769523791763e-02 -1.5535155822492345e-02 0.0000000000000000e+00  1.7572051213677581e-02 -1.2575107322737339e-02 0.0000000000000000e+00  1.9028165706340420e-02 -8.8733625718472285e-03 0.0000000000000000e+00  1.9188202114390270e-02 -4.5895417336793889e-03 0.0000000000000000e+00  1.5681246676459037e-02 -8.5876884169181487e-04 0.0000000000000000e+00  2.2684894902515889e-02 6.0281201303836029e-03 0.0000000000000000e+00  1.9756187906903835e-02 1.8639415013537604e-03 0.0000000000000000e+00  2.2100837342189109e-02 1.1038768899394168e-02 0.0000000000000000e+00  2.0603353491239370e-02 1.5355443917225660e-02 0.0000000000000000e+00  1.8691579932887420e-02 1.8829870346801413e-02 0.0000000000000000e+00  1.6542528302264815e-02 2.1425984732737522e-02 0.0000000000000000e+00  1.4266164103534531e-02 2.3135529985455854e-02 0.0000000000000000e+00  1.1951685352714299e-02 2.3970061587179726e-02 0.0000000000000000e+00  9.6763486968821141e-03 2.3959175939415697e-02 0.0000000000000000e+00  7.5064893589543713e-03 2.3149093370376669e-02 0.0000000000000000e+00  5.4994515806644608e-03 2.1600953670424111e-02 0.0000000000000000e+00  3.7032116634575880e-03 1.9389073426282152e-02 0.0000000000000000e+00  2.1581709774486481e-03 1.6599027008136751e-02 0.0000000000000000e+00  8.9683003588564173e-04 1.3325951087310146e-02 0.0000000000000000e+00  -5.4678843113450739e-05 9.6727292024736816e-03 0.0000000000000000e+00  -6.7697033116237806e-04 5.7485227765748052e-03 0.0000000000000000e+00  -9.5624213449070020e-04 1.6671276882086862e-03 0.0000000000000000e+00  -8.8487043156439214e-04 -2.4543309568484661e-03 0.0000000000000000e+00  -4.6082279361851818e-04 -6.4969678881049335e-03 0.0000000000000000e+00  3.1152036861195294e-04 -1.0341489693574419e-02 0.0000000000000000e+00  1.4214360582356182e-03 -1.3869893304402636e-02 0.0000000000000000e+00  2.8506816498872381e-03 -1.6967108722024084e-02 0.0000000000000000e+00  4.5731712352441063e-03 -1.9523020860468532e-02 0.0000000000000000e+00  6.5536174624485060e-03 -2.1434565884155425e-02 0.0000000000000000e+00  8.7470544676427064e-03 -2.2608156153357335e-02 0.0000000000000000e+00  1.1097458429201372e-02 -2.2962181215871073e-02 0.0000000000000000e+00  1.3537294608944577e-02 -2.2429658098212853e-02 0.0000000000000000e+00  1.5985487846063132e-02 -2.0960797954751094e-02 0.0000000000000000e+00  1.8342395743634519e-02 -1.8525609412344719e-02 0.0000000000000000e+00  2.0464052469869806e-02 -1.5117524252058055e-02 0.0000000000000000e+00  2.2041981568695235e-02 -1.0767022295827140e-02 0.0000000000000000e+00  2.2093538323141721e-02 -5.6509289454049153e-03 0.0000000000000000e+00  1.7841474606250168e-02 -1.3598293511692320e-03 0.0000000000000000e+00  2.6554409650300086e-02 7.0926760260803835e-03 0.0000000000000000e+00  2.3140646635596455e-02 2.3477421029307272e-03 0.0000000000000000e+00  2.5920206793476581e-02 1.2945532879987029e-02 0.0000000000000000e+00  2.4291376576341190e-02 1.7936850650789191e-02 0.0000000000000000e+00  2.2217002533145097e-02 2.1897908485469166e-02 0.0000000000000000e+00  1.9887246844050452e-02 2.4806997093333099e-02 0.0000000000000000e+00  1.7422363897764928e-02 2.6674157142112881e-02 0.0000000000000000e+00  1.4920903443838854e-02 2.7529636427809763e-02 0.0000000000000000e+00  1.2466629933677842e-02 2.7421121319591790e-02 0.0000000000000000e+00  1.0132017375389320e-02 2.6411897451273966e-02 0.0000000000000000e+00  7.9775602883592790e-03 2.4578906368273673e-02 0.0000000000000000e+00  6.0544320817249976e-03 2.2010853979147708e-02 0.0000000000000000e+00  4.4036932577099031e-03 1.8806367478819117e-02 0.0000000000000000e+00  3.0591859348896369e-03 1.5072265039020755e-02 0.0000000000000000e+00  2.0465519075369581e-03 1.0922109010021630e-02 0.0000000000000000e+00  1.3858524331528362e-03 6.4747669687098552e-03 0.0000000000000000e+00  1.0904287554511206e-03 1.8533776413811121e-03 0.0000000000000000e+00  1.1688266294952137e-03 -2.8158820424486431e-03 0.0000000000000000e+00  1.6232902040038894e-03 -7.4046312782158697e-03 0.0000000000000000e+00  2.4508675956814168e-03 -1.1783531636630668e-02 0.0000000000000000e+00  3.6415680250148092e-03 -1.5823288689750966e-02 0.0000000000000000e+00  5.1785742982634244e-03 -1.9396182312698681e-02 0.0000000000000000e+00  7.0360813709888564e-03 -2.2377580173493075e-02 0.0000000000000000e+00  9.1790107316661734e-03 -2.4647970788334306e-02 0.0000000000000000e+00  1.1560784422346267e-02 -2.6095162697741873e-02 0.0000000000000000e+00  1.4122820516362796e-02 -2.6616870111010982e-02 0.0000000000000000e+00  1.6792575283330939e-02 -2.6123469966705542e-02 0.0000000000000000e+00  1.9482168714665547e-02 -2.4540928428972514e-02 0.0000000000000000e+00  2.2081281706032390e-02 -2.1814000222852976e-02 0.0000000000000000e+00  2.4426786135196967e-02 -1.7911169032967519e-02 0.0000000000000000e+00  2.6155297901548219e-02 -1.2843080768706539e-02 0.0000000000000000e+00  2.6081730646518288e-02 -6.8066075458474958e-03 0.0000000000000000e+00  2.0887048272919879e-02 -1.8581570477196770e-03 0.0000000000000000e+00  3.1464580042013184e-02 8.2557501199924371e-03 0.0000000000000000e+00  2.7365436869337526e-02 2.8712404598959440e-03 0.0000000000000000e+00  3.0807990151100653e-02 1.5022668432045388e-02 0.0000000000000000e+00  2.9043922629374091e-02 2.0740691808152609e-02 0.0000000000000000e+00  2.6801028284636885e-02 2.5220865635144259e-02 0.0000000000000000e+00  2.4288823225797541e-02 2.8457713957388445e-02 0.0000000000000000e+00  2.1639553312474767e-02 3.0482438686916750e-02 0.0000000000000000e+00  1.8959818518424806e-02 3.1346990932078135e-02 0.0000000000000000e+00  1.6340678027485605e-02 3.1120265651923915e-02 0.0000000000000000e+00  1.3858158886965124e-02 2.9885419126088327e-02 0.0000000000000000e+00  1.1576296007382733e-02 2.7737686463290580e-02 0.0000000000000000e+00  9.5462187509213932e-03 2.4782092534183519e-02 0.0000000000000000e+00  7.8100247616858538e-03 2.1131683854938448e-02 0.0000000000000000e+00  6.3995618887572820e-03 1.6905803244829667e-02 0.0000000000000000e+00  5.3406085309575559e-03 1.2228893570329006e-02 0.0000000000000000e+00  4.6510173693144613e-03 7.2294708669317876e-03 0.0000000000000000e+00  4.3447289373130119e-03 2.0393818498353955e-03 0.0000000000000000e+00  4.4292174217597331e-03 -3.2066669045717473e-03 0.0000000000000000e+00  4.9085379622478258e-03 -8.3716816072045598e-03 0.0000000000000000e+00  5.7803258572855726e-03 -1.3316682113834787e-02 0.0000000000000000e+00  7.0375182722527616e-03 -1.7901477969083170e-02 0.0000000000000000e+00  8.6649942653062740e-03 -2.1985337002054024e-02 0.0000000000000000e+00  1.0639895269703187e-02 -2.5428328080411827e-02 0.0000000000000000e+00  1.2928337782360706e-02 -2.8092835969233714e-02 0.0000000000000000e+00  1.5484859266964355e-02 -2.9845729279344403e-02 0.0000000000000000e+00  1.8249482663671050e-02 -3.0560922164760151e-02 0.0000000000000000e+00  2.1146870836735211e-02 -3.0122421601606171e-02 0.0000000000000000e+00  2.4082968309540858e-02 -2.8427815420956633e-02 0.0000000000000000e+00  2.6937503725816575e-02 -2.5392369588548583e-02 0.0000000000000000e+00  2.9525884885569786e-02 -2.0955740775869064e-02 0.0000000000000000e+00  3.1419715652820014e-02 -1.5105823676913438e-02 0.0000000000000000e+00  3.1186029017209720e-02 -8.0601168493831636e-03 0.0000000000000000e+00  2.4808132527446347e-02 -2.3729759683997469e-03 0.0000000000000000e+00  3.7508513677275861e-02 9.5177014658865706e-03 0.0000000000000000e+00  3.2504240631795883e-02 3.4512677027669133e-03 0.0000000000000000e+00  3.6862298142870696e-02 1.7266469220275367e-02 0.0000000000000000e+00  3.4968537975091356e-02 2.3757715884332287e-02 0.0000000000000000e+00  3.2565012516588332e-02 2.8781666610184834e-02 0.0000000000000000e+00  2.9887508221032720e-02 3.2352304646819291e-02 0.0000000000000000e+00  2.7080045905763163e-02 3.4525762496523359e-02 0.0000000000000000e+00  2.4257484125309637e-02 3.5379800012657142e-02 0.0000000000000000e+00  2.1515094220726894e-02 3.5008305017439609e-02 0.0000000000000000e+00  1.8931794157820599e-02 3.3517869834495846e-02 0.0000000000000000e+00  1.6570686587568047e-02 3.1024757292376925e-02 0.0000000000000000e+00  1.4482286163754311e-02 2.7652531771331319e-02 0.0000000000000000e+00  1.2704596543804085e-02 2.3529868314404321e-02 0.0000000000000000e+00  1.1267705463547689e-02 1.8789263891433049e-02 0.0000000000000000e+00  1.0192520149404562e-02 1.3565821849963990e-02 0.0000000000000000e+00  9.4960966855187987e-03 7.9969832498348863e-03 0.0000000000000000e+00  9.1888283367236381e-03 2.2221564859202353e-03 0.0000000000000000e+00  9.2796247846993300e-03 -3.6169259139200811e-03 0.0000000000000000e+00  9.7716496109166665e-03 -9.3760354139398872e-03 0.0000000000000000e+00  1.0666432138706043e-02 -1.4908047470974153e-02 0.0000000000000000e+00  1.1958980499938225e-02 -2.0062721481661706e-02 0.0000000000000000e+00  1.3639746902991766e-02 -2.4686871985498814e-02 0.0000000000000000e+00  1.5689769822701972e-02 -2.8624795150956204e-02 0.0000000000000000e+00  1.8080571674089472e-02 -3.1719538364250524e-02 0.0000000000000000e+00  2.0769935163199457e-02 -3.3814637678832478e-02 0.0000000000000000e+00  2.3700476247110011e-02 -3.4756804990784429e-02 0.0000000000000000e+00  2.6796366065627405e-02 -3.4399276780375208e-02 0.0000000000000000e+00  2.9960251646213673e-02 -3.2606040386707544e-02 0.0000000000000000e+00  3.3062790755259246e-02 -2.9257151866320406e-02 0.0000000000000000e+00  3.5896653584947071e-02 -2.4257543222851962e-02 0.0000000000000000e+00  3.7956711118036765e-02 -1.7567091781303713e-02 0.0000000000000000e+00  3.7509728526523373e-02 -9.4232446640453525e-03 0.0000000000000000e+00  2.9663593972121604e-02 -2.9289519595070701e-03 0.0000000000000000e+00  4.4816240536897901e-02 1.0874323972578792e-02 0.0000000000000000e+00  3.8657549793094506e-02 4.1014100076513195e-03 0.0000000000000000e+00  4.4222258062962767e-02 1.9664319293060634e-02 0.0000000000000000e+00  4.2214766566176329e-02 2.6963502726915538e-02 0.0000000000000000e+00  3.9674082052419658e-02 3.2541516876552615e-02 0.0000000000000000e+00  3.6868348470083551e-02 3.6436684844022751e-02 0.0000000000000000e+00  3.3954093033569992e-02 3.8735590474992969e-02 0.0000000000000000e+00  3.1052332157540975e-02 3.9547281420429563e-02 0.0000000000000000e+00  2.8260389846466557e-02 3.8995700010746127e-02 0.0000000000000000e+00  2.5655573526548955e-02 3.7215109803246833e-02 0.0000000000000000e+00  2.3297308099059635e-02 3.4346185809970661e-02 0.0000000000000000e+00  2.1229604502624847e-02 3.0533144009013094e-02 0.0000000000000000e+00  1.9484511888863482e-02 2.5921540751571014e-02 0.0000000000000000e+00  1.8083900079094873e-02 2.0656906104638439e-02 0.0000000000000000e+00  1.7043931390884285e-02 1.4884330907370940e-02 0.0000000000000000e+00  1.6374671246101143e-02 8.7483293975743805e-03 0.0000000000000000e+00  1.6085450969481017e-02 2.3938748679840443e-03 0.0000000000000000e+00  1.6181647050262801e-02 -4.0329663107750019e-03 0.0000000000000000e+00  1.6669878453303148e-02 -1.0383245141748919e-02 0.0000000000000000e+00  1.7552691983946243e-02 -1.6504195706102950e-02 0.0000000000000000e+00  1.8832421316752217e-02 -2.2237645809247582e-02 0.0000000000000000e+00  2.0504946755937295e-02 -2.7419270117016368e-02 0.0000000000000000e+00  2.2560816930696864e-02 -3.1878190837576120e-02 0.0000000000000000e+00  2.4979486786705800e-02 -3.5437268157380568e-02 0.0000000000000000e+00  2.7727702522058952e-02 -3.7914666361524831e-02 0.0000000000000000e+00  3.0754735616883643e-02 -3.9126165488333225e-02 0.0000000000000000e+00  3.3989354352580735e-02 -3.8889087252138070e-02 0.0000000000000000e+00  3.7334591475424637e-02 -3.7027209019024628e-02 0.0000000000000000e+00  4.0654764427282809e-02 -3.3377685377165435e-02 0.0000000000000000e+00  4.3718829245023946e-02 -2.7802342534795098e-02 0.0000000000000000e+00  4.5932245843019352e-02 -2.0224971601905915e-02 0.0000000000000000e+00  4.5200846285298517e-02 -1.0900616294061489e-02 0.0000000000000000e+00  3.5551873162600271e-02 -3.5458897121895599e-03 0.0000000000000000e+00  5.3548279143561799e-02 1.2315021951244461e-02 0.0000000000000000e+00  4.5947409153316736e-02 4.8334415376991681e-03 0.0000000000000000e+00  5.3059470299323883e-02 2.2190256006328131e-02 0.0000000000000000e+00  5.0966342793413701e-02 3.0312398017332952e-02 0.0000000000000000e+00  4.8329609134193714e-02 3.6432149860395162e-02 0.0000000000000000e+00  4.5456506460238209e-02 4.0619379741046187e-02 0.0000000000000000e+00  4.2516023847901020e-02 4.2999122002602343e-02 0.0000000000000000e+00  3.9632632247405389e-02 4.3719131079865574e-02 0.0000000000000000e+00  3.6901452913087537e-02 4.2940139181399002e-02 0.0000000000000000e+00  3.4393176030611955e-02 4.0829291937000640e-02 0.0000000000000000e+00  3.2157463416720822e-02 3.7555595923221392e-02 0.0000000000000000e+00  3.0226759501310620e-02 3.3286090462854426e-02 0.0000000000000000e+00  2.8620476157446399e-02 2.8183917601507031e-02 0.0000000000000000e+00  2.7349005677706116e-02 2.2407017032670094e-02 0.0000000000000000e+00  2.6417132231800255e-02 1.6108401263874837e-02 0.0000000000000000e+00  2.5827598506620621e-02 9.4370705053447197e-03 0.0000000000000000e+00  2.5582620190352137e-02 2.5396332170941464e-03 0.0000000000000000e+00  2.5686973203763154e-02 -4.4371294241419565e-03 0.0000000000000000e+00  