<?xml version="1.0"?>
<VTKFile type="UnstructuredGrid"  version="0.1"  >
<UnstructuredGrid>
<Piece  NumberOfPoints="759" NumberOfCells="1408">
<Points>
<DataArray  type="Float64"  NumberOfComponents="3"  format="ascii">0 0.46875 0  0.03125 0.46875 0  0.03125 0.515625 0  0 0.515625 0  0.0625 0.46875 0  0.0625 0.515625 0  0.09375 0.46875 0  0.09375 0.515625 0  0.125 0.46875 0  0.125 0.515625 0  0.15625 0.46875 0  0.15625 0.515625 0  0.1875 0.46875 0  0.1875 0.515625 0  0.21875 0.46875 0  0.21875 0.515625 0  0.25 0.46875 0  0.25 0.515625 0  0.28125 0.46875 0  0.28125 0.515625 0  0.3125 0.46875 0  0.3125 0.515625 0  0.34375 0.46875 0  0.34375 0.515625 0  0.375 0.46875 0  0.375 0.515625 0  0.40625 0.46875 0  0.40625 0.515625 0  0.4375 0.46875 0  0.4375 0.515625 0  0.46875 0.46875 0  0.46875 0.515625 0  0.5 0.46875 0  0.5 0.515625 0  0.53125 0.46875 0  0.53125 0.515625 0  0.5625 0.46875 0  0.5625 0.515625 0  0.59375 0.46875 0  0.59375 0.515625 0  0.625 0.46875 0  0.625 0.515625 0  0.65625 0.46875 0  0.65625 0.515625 0  0.6875 0.46875 0  0.6875 0.515625 0  0.71875 0.46875 0  0.71875 0.515625 0  0.75 0.46875 0  0.75 0.515625 0  0.78125 0.46875 0  0.78125 0.515625 0  0.8125 0.46875 0  0.8125 0.515625 0  0.84375 0.46875 0  0.84375 0.515625 0  0.875 0.46875 0  0.875 0.515625 0  0.90625 0.46875 0  0.90625 0.515625 0  0.9375 0.46875 0  0.9375 0.515625 0  0.96875 0.46875 0  0.96875 0.515625 0  1 0.46875 0  1 0.515625 0  0.03125 0.5625 0  0 0.5625 0  0.0625 0.5625 0  0.09375 0.5625 0  0.125 0.5625 0  0.15625 0.5625 0  0.1875 0.5625 0  0.21875 0.5625 0  0.25 0.5625 0  0.28125 0.5625 0  0.3125 0.5625 0  0.34375 0.5625 0  0.375 0.5625 0  0.40625 0.5625 0  0.4375 0.5625 0  0.46875 0.5625 0  0.5 0.5625 0  0.53125 0.5625 0  0.5625 0.5625 0  0.59375 0.5625 0  0.625 0.5625 0  0.65625 0.5625 0  0.6875 0.5625 0  0.71875 0.5625 0  0.75 0.5625 0  0.78125 0.5625 0  0.8125 0.5625 0  0.84375 0.5625 0  0.875 0.5625 0  0.90625 0.5625 0  0.9375 0.5625 0  0.96875 0.5625 0  1 0.5625 0  0.03125 0.609375 0  0 0.609375 0  0.0625 0.609375 0  0.09375 0.609375 0  0.125 0.609375 0  0.15625 0.609375 0  0.1875 0.609375 0  0.21875 0.609375 0  0.25 0.609375 0  0.28125 0.609375 0  0.3125 0.609375 0  0.34375 0.609375 0  0.375 0.609375 0  0.40625 0.609375 0  0.4375 0.609375 0  0.46875 0.609375 0  0.5 0.609375 0  0.53125 0.609375 0  0.5625 0.609375 0  0.59375 0.609375 0  0.625 0.609375 0  0.65625 0.609375 0  0.6875 0.609375 0  0.71875 0.609375 0  0.75 0.609375 0  0.78125 0.609375 0  0.8125 0.609375 0  0.84375 0.609375 0  0.875 0.609375 0  0.90625 0.609375 0  0.9375 0.609375 0  0.96875 0.609375 0  1 0.609375 0  0.03125 0.65625 0  0 0.65625 0  0.0625 0.65625 0  0.09375 0.65625 0  0.125 0.65625 0  0.15625 0.65625 0  0.1875 0.65625 0  0.21875 0.65625 0  0.25 0.65625 0  0.28125 0.65625 0  0.3125 0.65625 0  0.34375 0.65625 0  0.375 0.65625 0  0.40625 0.65625 0  0.4375 0.65625 0  0.46875 0.65625 0  0.5 0.65625 0  0.53125 0.65625 0  0.5625 0.65625 0  0.59375 0.65625 0  0.625 0.65625 0  0.65625 0.65625 0  0.6875 0.65625 0  0.71875 0.65625 0  0.75 0.65625 0  0.78125 0.65625 0  0.8125 0.65625 0  0.84375 0.65625 0  0.875 0.65625 0  0.90625 0.65625 0  0.9375 0.65625 0  0.96875 0.65625 0  1 0.65625 0  0.03125 0.703125 0  0 0.703125 0  0.0625 0.703125 0  0.09375 0.703125 0  0.125 0.703125 0  0.15625 0.703125 0  0.1875 0.703125 0  0.21875 0.703125 0  0.25 0.703125 0  0.28125 0.703125 0  0.3125 0.703125 0  0.34375 0.703125 0  0.375 0.703125 0  0.40625 0.703125 0  0.4375 0.703125 0  0.46875 0.703125 0  0.5 0.703125 0  0.53125 0.703125 0  0.5625 0.703125 0  0.59375 0.703125 0  0.625 0.703125 0  0.65625 0.703125 0  0.6875 0.703125 0  0.71875 0.703125 0  0.75 0.703125 0  0.78125 0.703125 0  0.8125 0.703125 0  0.84375 0.703125 0  0.875 0.703125 0  0.90625 0.703125 0  0.9375 0.703125 0  0.96875 0.703125 0  1 0.703125 0  0.03125 0.75 0  0 0.75 0  0.0625 0.75 0  0.09375 0.75 0  0.125 0.75 0  0.15625 0.75 0  0.1875 0.75 0  0.21875 0.75 0  0.25 0.75 0  0.28125 0.75 0  0.3125 0.75 0  0.34375 0.75 0  0.375 0.75 0  0.40625 0.75 0  0.4375 0.75 0  0.46875 0.75 0  0.5 0.75 0  0.53125 0.75 0  0.5625 0.75 0  0.59375 0.75 0  0.625 0.75 0  0.65625 0.75 0  0.6875 0.75 0  0.71875 0.75 0  0.75 0.75 0  0.78125 0.75 0  0.8125 0.75 0  0.84375 0.75 0  0.875 0.75 0  0.90625 0.75 0  0.9375 0.75 0  0.96875 0.75 0  1 0.75 0  0.03125 0.796875 0  0 0.796875 0  0.0625 0.796875 0  0.09375 0.796875 0  0.125 0.796875 0  0.15625 0.796875 0  0.1875 0.796875 0  0.21875 0.796875 0  0.25 0.796875 0  0.28125 0.796875 0  0.3125 0.796875 0  0.34375 0.796875 0  0.375 0.796875 0  0.40625 0.796875 0  0.4375 0.796875 0  0.46875 0.796875 0  0.5 0.796875 0  0.53125 0.796875 0  0.5625 0.796875 0  0.59375 0.796875 0  0.625 0.796875 0  0.65625 0.796875 0  0.6875 0.796875 0  0.71875 0.796875 0  0.75 0.796875 0  0.78125 0.796875 0  0.8125 0.796875 0  0.84375 0.796875 0  0.875 0.796875 0  0.90625 0.796875 0  0.9375 0.796875 0  0.96875 0.796875 0  1 0.796875 0  0.03125 0.84375 0  0 0.84375 0  0.0625 0.84375 0  0.09375 0.84375 0  0.125 0.84375 0  0.15625 0.84375 0  0.1875 0.84375 0  0.21875 0.84375 0  0.25 0.84375 0  0.28125 0.84375 0  0.3125 0.84375 0  0.34375 0.84375 0  0.375 0.84375 0  0.40625 0.84375 0  0.4375 0.84375 0  0.46875 0.84375 0  0.5 0.84375 0  0.53125 0.84375 0  0.5625 0.84375 0  0.59375 0.84375 0  0.625 0.84375 0  0.65625 0.84375 0  0.6875 0.84375 0  0.71875 0.84375 0  0.75 0.84375 0  0.78125 0.84375 0  0.8125 0.84375 0  0.84375 0.84375 0  0.875 0.84375 0  0.90625 0.84375 0  0.9375 0.84375 0  0.96875 0.84375 0  1 0.84375 0  0.03125 0.890625 0  0 0.890625 0  0.0625 0.890625 0  0.09375 0.890625 0  0.125 0.890625 0  0.15625 0.890625 0  0.1875 0.890625 0  0.21875 0.890625 0  0.25 0.890625 0  0.28125 0.890625 0  0.3125 0.890625 0  0.34375 0.890625 0  0.375 0.890625 0  0.40625 0.890625 0  0.4375 0.890625 0  0.46875 0.890625 0  0.5 0.890625 0  0.53125 0.890625 0  0.5625 0.890625 0  0.59375 0.890625 0  0.625 0.890625 0  0.65625 0.890625 0  0.6875 0.890625 0  0.71875 0.890625 0  0.75 0.890625 0  0.78125 0.890625 0  0.8125 0.890625 0  0.84375 0.890625 0  0.875 0.890625 0  0.90625 0.890625 0  0.9375 0.890625 0  0.96875 0.890625 0  1 0.890625 0  0.03125 0.9375 0  0 0.9375 0  0.0625 0.9375 0  0.09375 0.9375 0  0.125 0.9375 0  0.15625 0.9375 0  0.1875 0.9375 0  0.21875 0.9375 0  0.25 0.9375 0  0.28125 0.9375 0  0.3125 0.9375 0  0.34375 0.9375 0  0.375 0.9375 0  0.40625 0.9375 0  0.4375 0.9375 0  0.46875 0.9375 0  0.5 0.9375 0  0.53125 0.9375 0  0.5625 0.9375 0  0.59375 0.9375 0  0.625 0.9375 0  0.65625 0.9375 0  0.6875 0.9375 0  0.71875 0.9375 0  0.75 0.9375 0  0.78125 0.9375 0  0.8125 0.9375 0  0.84375 0.9375 0  0.875 0.9375 0  0.90625 0.9375 0  0.9375 0.9375 0  0.96875 0.9375 0  1 0.9375 0  0.03125 0.984375 0  0 0.984375 0  0.0625 0.984375 0  0.09375 0.984375 0  0.125 0.984375 0  0.15625 0.984375 0  0.1875 0.984375 0  0.21875 0.984375 0  0.25 0.984375 0  0.28125 0.984375 0  0.3125 0.984375 0  0.34375 0.984375 0  0.375 0.984375 0  0.40625 0.984375 0  0.4375 0.984375 0  0.46875 0.984375 0  0.5 0.984375 0  0.53125 0.984375 0  0.5625 0.984375 0  0.59375 0.984375 0  0.625 0.984375 0  0.65625 0.984375 0  0.6875 0.984375 0  0.71875 0.984375 0  0.75 0.984375 0  0.78125 0.984375 0  0.8125 0.984375 0  0.84375 0.984375 0  0.875 0.984375 0  0.90625 0.984375 0  0.9375 0.984375 0  0.96875 0.984375 0  1 0.984375 0  0.03125 1.03125 0  0 1.03125 0  0.0625 1.03125 0  0.09375 1.03125 0  0.125 1.03125 0  0.15625 1.03125 0  0.1875 1.03125 0  0.21875 1.03125 0  0.25 1.03125 0  0.28125 1.03125 0  0.3125 1.03125 0  0.34375 1.03125 0  0.375 1.03125 0  0.40625 1.03125 0  0.4375 1.03125 0  0.46875 1.03125 0  0.5 1.03125 0  0.53125 1.03125 0  0.5625 1.03125 0  0.59375 1.03125 0  0.625 1.03125 0  0.65625 1.03125 0  0.6875 1.03125 0  0.71875 1.03125 0  0.75 1.03125 0  0.78125 1.03125 0  0.8125 1.03125 0  0.84375 1.03125 0  0.875 1.03125 0  0.90625 1.03125 0  0.9375 1.03125 0  0.96875 1.03125 0  1 1.03125 0  0.03125 1.078125 0  0 1.078125 0  0.0625 1.078125 0  0.09375 1.078125 0  0.125 1.078125 0  0.15625 1.078125 0  0.1875 1.078125 0  0.21875 1.078125 0  0.25 1.078125 0  0.28125 1.078125 0  0.3125 1.078125 0  0.34375 1.078125 0  0.375 1.078125 0  0.40625 1.078125 0  0.4375 1.078125 0  0.46875 1.078125 0  0.5 1.078125 0  0.53125 1.078125 0  0.5625 1.078125 0  0.59375 1.078125 0  0.625 1.078125 0  0.65625 1.078125 0  0.6875 1.078125 0  0.71875 1.078125 0  0.75 1.078125 0  0.78125 1.078125 0  0.8125 1.078125 0  0.84375 1.078125 0  0.875 1.078125 0  0.90625 1.078125 0  0.9375 1.078125 0  0.96875 1.078125 0  1 1.078125 0  0.03125 1.125 0  0 1.125 0  0.0625 1.125 0  0.09375 1.125 0  0.125 1.125 0  0.15625 1.125 0  0.1875 1.125 0  0.21875 1.125 0  0.25 1.125 0  0.28125 1.125 0  0.3125 1.125 0  0.34375 1.125 0  0.375 1.125 0  0.40625 1.125 0  0.4375 1.125 0  0.46875 1.125 0  0.5 1.125 0  0.53125 1.125 0  0.5625 1.125 0  0.59375 1.125 0  0.625 1.125 0  0.65625 1.125 0  0.6875 1.125 0  0.71875 1.125 0  0.75 1.125 0  0.78125 1.125 0  0.8125 1.125 0  0.84375 1.125 0  0.875 1.125 0  0.90625 1.125 0  0.9375 1.125 0  0.96875 1.125 0  1 1.125 0  0.03125 1.171875 0  0 1.171875 0  0.0625 1.171875 0  0.09375 1.171875 0  0.125 1.171875 0  0.15625 1.171875 0  0.1875 1.171875 0  0.21875 1.171875 0  0.25 1.171875 0  0.28125 1.171875 0  0.3125 1.171875 0  0.34375 1.171875 0  0.375 1.171875 0  0.40625 1.171875 0  0.4375 1.171875 0  0.46875 1.171875 0  0.5 1.171875 0  0.53125 1.171875 0  0.5625 1.171875 0  0.59375 1.171875 0  0.625 1.171875 0  0.65625 1.171875 0  0.6875 1.171875 0  0.71875 1.171875 0  0.75 1.171875 0  0.78125 1.171875 0  0.8125 1.171875 0  0.84375 1.171875 0  0.875 1.171875 0  0.90625 1.171875 0  0.9375 1.171875 0  0.96875 1.171875 0  1 1.171875 0  0.03125 1.21875 0  0 1.21875 0  0.0625 1.21875 0  0.09375 1.21875 0  0.125 1.21875 0  0.15625 1.21875 0  0.1875 1.21875 0  0.21875 1.21875 0  0.25 1.21875 0  0.28125 1.21875 0  0.3125 1.21875 0  0.34375 1.21875 0  0.375 1.21875 0  0.40625 1.21875 0  0.4375 1.21875 0  0.46875 1.21875 0  0.5 1.21875 0  0.53125 1.21875 0  0.5
[...]
<PointData  Vectors="u"> 
<DataArray  type="Float64"  Name="u"  NumberOfComponents="3" format="ascii">1.4116428625867513e-02 7.1453022353713531e-04 0.0000000000000000e+00  1.6277627845472268e-02 3.9893802998238852e-03 0.0000000000000000e+00  1.7909180009968294e-02 4.2714730121665347e-03 0.0000000000000000e+00  1.5337495482010138e-02 9.3240407211073206e-04 0.0000000000000000e+00  1.5726512195691864e-02 7.2649865732490621e-03 0.0000000000000000e+00  1.7523784952547153e-02 7.8604727166727440e-03 0.0000000000000000e+00  1.4635532459295534e-02 1.0194549730396085e-02 0.0000000000000000e+00  1.6218989785917706e-02 1.1032449161862235e-02 0.0000000000000000e+00  1.3206396264360045e-02 1.2658637314514973e-02 0.0000000000000000e+00  1.4558940706781407e-02 1.3675937565991909e-02 0.0000000000000000e+00  1.1547097891537173e-02 1.4591548389400055e-02 0.0000000000000000e+00  1.2696911491002005e-02 1.5729381386637559e-02 0.0000000000000000e+00  9.7473260530716501e-03 1.5949006693313440e-02 0.0000000000000000e+00  1.0722003781333525e-02 1.7154428641695377e-02 0.0000000000000000e+00  7.8853706972999340e-03 1.6706969093873009e-02 0.0000000000000000e+00  8.7092145078761750e-03 1.7933115039443590e-02 0.0000000000000000e+00  6.0301963668969467e-03 1.6861339170774592e-02 0.0000000000000000e+00  6.7245170866831582e-03 1.8066927896826179e-02 0.0000000000000000e+00  4.2424117092530770e-03 1.6426750588036429e-02 0.0000000000000000e+00  4.8257825642293185e-03 1.7575677147741726e-02 0.0000000000000000e+00  2.5748689204453485e-03 1.5434941842449803e-02 0.0000000000000000e+00  3.0635933361145618e-03 1.6495860279087702e-02 0.0000000000000000e+00  1.0731696860856483e-03 1.3932806144468648e-02 0.0000000000000000e+00  1.4814475831717499e-03 1.4878855603344699e-02 0.0000000000000000e+00  -2.2396809858535462e-04 1.1980413610459971e-02 0.0000000000000000e+00  1.1631749391271366e-04 1.2788918851526210e-02 0.0000000000000000e+00  -1.2843242135026787e-03 9.6489327004470049e-03 0.0000000000000000e+00  -1.0011918306456783e-03 1.0301235139581342e-02 0.0000000000000000e+00  -2.0819538266074050e-03 7.0186400500331265e-03 0.0000000000000000e+00  -1.8465077479803943e-03 7.4999108790966317e-03 0.0000000000000000e+00  -2.5969827563291641e-03 4.1768963136050640e-03 0.0000000000000000e+00  -2.4010523933574012e-03 4.4760766141074253e-03 0.0000000000000000e+00  -2.8154859858308509e-03 1.2162065037412293e-03 0.0000000000000000e+00  -2.6520288270586228e-03 1.3259498771350292e-03 0.0000000000000000e+00  -2.7294241638897848e-03 -1.7677539174544197e-03 0.0000000000000000e+00  -2.5925244465010997e-03 -1.8510181193792542e-03 0.0000000000000000e+00  -2.3367033278804870e-03 -4.6780862173903849e-03 0.0000000000000000e+00  -2.2215423732573725e-03 -4.9540675130482353e-03 0.0000000000000000e+00  -1.6412665642762548e-03 -7.4186965590079907e-03 0.0000000000000000e+00  -1.5442391140290902e-03 -7.8830510422302855e-03 0.0000000000000000e+00  -6.5326657439420408e-04 -9.8963664317269374e-03 0.0000000000000000e+00  -5.7211117731682966e-04 -1.0540480432852240e-02 0.0000000000000000e+00  6.1070274050387574e-04 -1.2022958340931388e-02 0.0000000000000000e+00  6.7657407901812493e-04 -1.2833644066558401e-02 0.0000000000000000e+00  2.1273054185321923e-03 -1.3717707953043638e-02 0.0000000000000000e+00  2.1764307848190444e-03 -1.4676894292076685e-02 0.0000000000000000e+00  3.8662134915519310e-03 -1.4909677477145528e-02 0.0000000000000000e+00  3.8944629014239064e-03 -1.5994037079416958e-02 0.0000000000000000e+00  5.7898139911004010e-03 -1.5540284307939510e-02 0.0000000000000000e+00  5.7896958866973207e-03 -1.6720881534831224e-02 0.0000000000000000e+00  7.8529832990360468e-03 -1.5565938549783593e-02 0.0000000000000000e+00  7.8126666120076852e-03 -1.6807835217000577e-02 0.0000000000000000e+00  1.0002703199208898e-02 -1.4960675933892329e-02 0.0000000000000000e+00  9.9050347926118287e-03 -1.6222547288959433e-02 0.0000000000000000e+00  1.2176828787513402e-02 -1.3718799734608569e-02 0.0000000000000000e+00  1.1998415429950917e-02 -1.4952450796508351e-02 0.0000000000000000e+00  1.4298475914167648e-02 -1.1857589132121569e-02 0.0000000000000000e+00  1.4010382808661383e-02 -1.3007260852945941e-02 0.0000000000000000e+00  1.6249761101556650e-02 -9.4211113311028823e-03 0.0000000000000000e+00  1.5825455686468728e-02 -1.0422004400662750e-02 0.0000000000000000e+00  1.7752564108340009e-02 -6.4918199659048216e-03 0.0000000000000000e+00  1.7208720499075656e-02 -7.2656136678314037e-03 0.0000000000000000e+00  1.7927562682127231e-02 -3.2623782699465953e-03 0.0000000000000000e+00  1.7459880212808344e-02 -3.6937764828207644e-03 0.0000000000000000e+00  1.5189934287125350e-02 -3.0009056644917243e-04 0.0000000000000000e+00  1.4590412436550055e-02 -4.1159109581959948e-04 0.0000000000000000e+00  1.9809772603461000e-02 5.0661628407362592e-03 0.0000000000000000e+00  1.7169936766730808e-02 1.3983243500900367e-03 0.0000000000000000e+00  1.9303892552444201e-02 9.3118397857636231e-03 0.0000000000000000e+00  1.7925759800382041e-02 1.3011055885395544e-02 0.0000000000000000e+00  1.6157658440469676e-02 1.6036908883714833e-02 0.0000000000000000e+00  1.4169018895923379e-02 1.8340886284364838e-02 0.0000000000000000e+00  1.2062214920632103e-02 1.9898586630121420e-02 0.0000000000000000e+00  9.9185323425793944e-03 2.0705321261434682e-02 0.0000000000000000e+00  7.8081112338682247e-03 2.0775190421106347e-02 0.0000000000000000e+00  5.7924611324252934e-03 2.0139781506609944e-02 0.0000000000000000e+00  3.9246298823738196e-03 1.8846656377327613e-02 0.0000000000000000e+00  2.2501955135890324e-03 1.6957491714592647e-02 0.0000000000000000e+00  8.0732480364443247e-04 1.4546271401915809e-02 0.0000000000000000e+00  -3.7233390608831497e-04 1.1697311021812621e-02 0.0000000000000000e+00  -1.2637199482349449e-03 8.5034912743481711e-03 0.0000000000000000e+00  -1.8477052050997326e-03 5.0643768897636453e-03 0.0000000000000000e+00  -2.1112071036001228e-03 1.4845552164688685e-03 0.0000000000000000e+00  -2.0468935512295973e-03 -2.1281536011833911e-03 0.0000000000000000e+00  -1.6535155626534986e-03 -5.6643415782840368e-03 0.0000000000000000e+00  -9.3588843815989482e-04 -9.0148430782238786e-03 0.0000000000000000e+00  9.4556960606838588e-05 -1.2072533602905246e-02 0.0000000000000000e+00  1.4194876232550197e-03 -1.4734365157541202e-02 0.0000000000000000e+00  3.0128819575145670e-03 -1.6903466694931087e-02 0.0000000000000000e+00  4.8406448818332833e-03 -1.8491496529793042e-02 0.0000000000000000e+00  6.8597339673038740e-03 -1.9421072908376271e-02 0.0000000000000000e+00  9.0177498351868609e-03 -1.9628378060706057e-02 0.0000000000000000e+00  1.1252062067409153e-02 -1.9065715659977469e-02 0.0000000000000000e+00  1.3488733352806497e-02 -1.7704026934621069e-02 0.0000000000000000e+00  1.5637757232884634e-02 -1.5535228023665243e-02 0.0000000000000000e+00  1.7572038269619394e-02 -1.2575162301390230e-02 0.0000000000000000e+00  1.9028152341213033e-02 -8.8733996401883959e-03 0.0000000000000000e+00  1.9188188969088707e-02 -4.5895604039079604e-03 0.0000000000000000e+00  1.5681236072324096e-02 -8.5876866933869351e-04 0.0000000000000000e+00  2.2684932240805384e-02 6.0281064444834215e-03 0.0000000000000000e+00  1.9756218314856817e-02 1.8639425982408587e-03 0.0000000000000000e+00  2.2100875204427668e-02 1.1038741133803757e-02 0.0000000000000000e+00  2.0603390402945506e-02 1.5355402001579099e-02 0.0000000000000000e+00  1.8691615428909427e-02 1.8829814312755943e-02 0.0000000000000000e+00  1.6542562128566432e-02 2.1425914768094950e-02 0.0000000000000000e+00  1.4266196062575127e-02 2.3135446435404869e-02 0.0000000000000000e+00  1.1951715276439736e-02 2.3969964951089606e-02 0.0000000000000000e+00  9.6763764413695316e-03 2.3959066867085002e-02 0.0000000000000000e+00  7.5065148033811729e-03 2.3148972657716996e-02 0.0000000000000000e+00  5.4994746272697403e-03 2.1600822254220529e-02 0.0000000000000000e+00  3.7032322375769610e-03 1.9388932377762524e-02 0.0000000000000000e+00  2.1581890276837767e-03 1.6598877525145602e-02 0.0000000000000000e+00  8.9684553415430971e-04 1.3325794484987229e-02 0.0000000000000000e+00  -5.4665901665067215e-05 9.6725669023503720e-03 0.0000000000000000e+00  -6.7695992846952238e-04 5.7483562941166664e-03 0.0000000000000000e+00  -9.5623423006762471e-04 1.6669586188056687e-03 0.0000000000000000e+00  -8.8486496333937481e-04 -2.4545009533544549e-03 0.0000000000000000e+00  -4.6081967905588857e-04 -6.4971371042870027e-03 0.0000000000000000e+00  3.1152123106816199e-04 -1.0341656392536938e-02 0.0000000000000000e+00  1.4214347874288843e-03 -1.3870055739035539e-02 0.0000000000000000e+00  2.8506783798632964e-03 -1.6967265155213095e-02 0.0000000000000000e+00  4.5731661128977806e-03 -1.9523169586102701e-02 0.0000000000000000e+00  6.5536106448871052e-03 -2.1434705248694175e-02 0.0000000000000000e+00  8.7470461193794053e-03 -2.2608284577746222e-02 0.0000000000000000e+00  1.1097448719179396e-02 -2.2962297217549141e-02 0.0000000000000000e+00  1.3537283707541384e-02 -2.2429760312912064e-02 0.0000000000000000e+00  1.5985475922429267e-02 -2.0960885157816696e-02 0.0000000000000000e+00  1.8342382964972953e-02 -1.8525680539302525e-02 0.0000000000000000e+00  2.0464039011320326e-02 -1.5117578418039993e-02 0.0000000000000000e+00  2.2041967679578812e-02 -1.0767058812606936e-02 0.0000000000000000e+00  2.2093524670802750e-02 -5.6509473238957860e-03 0.0000000000000000e+00  1.7841463586702761e-02 -1.3598291036489008e-03 0.0000000000000000e+00  2.6554449377530393e-02 7.0926629407458055e-03 0.0000000000000000e+00  2.3140679005020419e-02 2.3477433248142556e-03 0.0000000000000000e+00  2.5920247119361490e-02 1.2945506275135053e-02 0.0000000000000000e+00  2.4291415978215363e-02 1.7936810401407790e-02 0.0000000000000000e+00  2.2217040534254814e-02 2.1897854562557693e-02 0.0000000000000000e+00  1.9887283176877772e-02 2.4806929628985751e-02 0.0000000000000000e+00  1.7422398349164866e-02 2.6674076430783608e-02 0.0000000000000000e+00  1.4920935827591670e-02 2.7529542922085471e-02 0.0000000000000000e+00  1.2466660086044589e-02 2.7421015625334482e-02 0.0000000000000000e+00  1.0132045155074000e-02 2.6411780322355357e-02 0.0000000000000000e+00  7.9775855771282815e-03 2.4578778700637263e-02 0.0000000000000000e+00  6.0544547851268254e-03 2.2010716803907048e-02 0.0000000000000000e+00  4.4037133057040446e-03 1.8806221954188223e-02 0.0000000000000000e+00  3.0592032824421564e-03 1.5072112440914937e-02 0.0000000000000000e+00  2.0465665348875311e-03 1.0921950721259838e-02 0.0000000000000000e+00  1.3858643459226713e-03 6.4746044667532898e-03 0.0000000000000000e+00  1.0904379844057408e-03 1.8532124846604135e-03 0.0000000000000000e+00  1.1688332300367563e-03 -2.8160482296350009e-03 0.0000000000000000e+00  1.6232942552134580e-03 -7.4047968221114977e-03 0.0000000000000000e+00  2.4508691990572937e-03 -1.1783694831686576e-02 0.0000000000000000e+00  3.6415673027621379e-03 -1.5823447817406897e-02 0.0000000000000000e+00  5.1785713912293708e-03 -1.9396335661177190e-02 0.0000000000000000e+00  7.0360764361645815e-03 -2.2377726058419888e-02 0.0000000000000000e+00  9.1790039393632901e-03 -2.4648107574044262e-02 0.0000000000000000e+00  1.1560775953048160e-02 -2.6095288819026782e-02 0.0000000000000000e+00  1.4122810557381868e-02 -2.6616984095109462e-02 0.0000000000000000e+00  1.6792564025261698e-02 -2.6123570455251089e-02 0.0000000000000000e+00  1.9482156348099293e-02 -2.4541014199629833e-02 0.0000000000000000e+00  2.2081268420000313e-02 -2.1814070210341052e-02 0.0000000000000000e+00  2.4426772126096175e-02 -1.7911222349021018e-02 0.0000000000000000e+00  2.6155283438907637e-02 -1.2843116719534593e-02 0.0000000000000000e+00  2.6081716422204599e-02 -6.8066256341111015e-03 0.0000000000000000e+00  2.0887036749363562e-02 -1.8581567657881810e-03 0.0000000000000000e+00  3.1464622451403176e-02 8.2557376088345114e-03 0.0000000000000000e+00  2.7365471395146595e-02 2.8712417588696989e-03 0.0000000000000000e+00  3.0808033269892315e-02 1.5022642952209017e-02 0.0000000000000000e+00  2.9043964869110806e-02 2.0740653188634967e-02 0.0000000000000000e+00  2.6801069155654403e-02 2.5220813796390702e-02 0.0000000000000000e+00  2.4288862448996806e-02 2.8457648983886454e-02 0.0000000000000000e+00  2.1639590658805555e-02 3.0482360828496133e-02 0.0000000000000000e+00  1.8959853781887637e-02 3.1346900598808181e-02 0.0000000000000000e+00  1.6340711021971707e-02 3.1120163408381220e-02 0.0000000000000000e+00  1.3858189447233406e-02 2.9885305685389611e-02 0.0000000000000000e+00  1.1576323990728598e-02 2.7737562680649103e-02 0.0000000000000000e+00  9.5462440386097358e-03 2.4781959399694315e-02 0.0000000000000000e+00  7.8100472604059976e-03 2.1131542485376017e-02 0.0000000000000000e+00  6.3995815317322994e-03 1.6905654874289702e-02 0.0000000000000000e+00  5.3406252788815861e-03 1.2228739539593508e-02 0.0000000000000000e+00  4.6510312108366718e-03 7.2293126115268594e-03 0.0000000000000000e+00  4.3447398893649222e-03 2.0392208867371694e-03 0.0000000000000000e+00  4.4292255293192284e-03 -3.2068289915231593e-03 0.0000000000000000e+00  4.9085432977896398e-03 -8.3718431831985903e-03 0.0000000000000000e+00  5.7803285196618651e-03 -1.3316841510145035e-02 0.0000000000000000e+00  7.0375183852057436e-03 -1.7901633501268187e-02 0.0000000000000000e+00  8.6649919753607144e-03 -2.1985486989160478e-02 0.0000000000000000e+00  1.0639890743646815e-02 -2.5428470865080651e-02 0.0000000000000000e+00  1.2928331204156823e-02 -2.8092969938536286e-02 0.0000000000000000e+00  1.5484850834307045e-02 -2.9845852886208179e-02 0.0000000000000000e+00  1.8249472584123357e-02 -3.0561033949740225e-02 0.0000000000000000e+00  2.1146859323612488e-02 -3.0122520214764175e-02 0.0000000000000000e+00  2.4082955577823226e-02 -2.8427899643548152e-02 0.0000000000000000e+00  2.6937489989666257e-02 -2.5392438354190902e-02 0.0000000000000000e+00  2.9525870366069417e-02 -2.0955793190656730e-02 0.0000000000000000e+00  3.1419700642604180e-02 -1.5105859036976005e-02 0.0000000000000000e+00  3.1186014231583976e-02 -8.0601346434967334e-03 0.0000000000000000e+00  2.4808120485067999e-02 -2.3729756842359177e-03 0.0000000000000000e+00  3.7508558957770874e-02 9.5176894895527536e-03 0.0000000000000000e+00  3.2504277429437040e-02 3.4512690354217565e-03 0.0000000000000000e+00  3.6862344271018616e-02 1.7266444804936103e-02 0.0000000000000000e+00  3.4968583285560260e-02 2.3757678826736923e-02 0.0000000000000000e+00  3.2565056507913394e-02 2.8781616793651769e-02 0.0000000000000000e+00  2.9887550605481743e-02 3.2352242119013191e-02 0.0000000000000000e+00  2.7080086440013199e-02 3.4525687470854431e-02 0.0000000000000000e+00  2.4257522583825498e-02 3.5379712862626145e-02 0.0000000000000000e+00  2.1515130393916334e-02 3.5008206270357979e-02 0.0000000000000000e+00  1.8931827854424856e-02 3.3517760165090234e-02 0.0000000000000000e+00  1.6570717637415411e-02 3.1024637516051556e-02 0.0000000000000000e+00  1.4482314420309509e-02 2.7652402836823305e-02 0.0000000000000000e+00  1.2704621886378848e-02 2.3529731295582668e-02 0.0000000000000000e+00  1.1267727799339686e-02 1.8789119978088024e-02 0.0000000000000000e+00  1.0192539414979803e-02 1.3565672337450430e-02 0.0000000000000000e+00  9.4961128481140591e-03 7.9968295275142220e-03 0.0000000000000000e+00  9.1888413949660561e-03 2.2220000243803012e-03 0.0000000000000000e+00  9.2796347690633097e-03 -3.6170835768781669e-03 0.0000000000000000e+00  9.7716565834242517e-03 -9.3761926884939843e-03 0.0000000000000000e+00  1.0666436192303909e-02 -1.4908202731645405e-02 0.0000000000000000e+00  1.1958981757099739e-02 -2.0062873084725017e-02 0.0000000000000000e+00  1.3639745513841403e-02 -2.4687018287446044e-02 0.0000000000000000e+00  1.5689765962354909e-02 -2.8624934527857259e-02 0.0000000000000000e+00  1.8080565539465781e-02 -3.1719669231938752e-02 0.0000000000000000e+00  2.0769926969181597e-02 -3.3814758513744797e-02 0.0000000000000000e+00  2.3700466222230990e-02 -3.4756914351296547e-02 0.0000000000000000e+00  2.6796354447261292e-02 -3.4399373328363347e-02 0.0000000000000000e+00  2.9960238675701037e-02 -3.2606122909047013e-02 0.0000000000000000e+00  3.3062776674414970e-02 -2.9257219295944024e-02 0.0000000000000000e+00  3.5896638642562546e-02 -2.4257594658793621e-02 0.0000000000000000e+00  3.7956695632777440e-02 -1.7567126506251914e-02 0.0000000000000000e+00  3.7509713236574350e-02 -9.4232621484343221e-03 0.0000000000000000e+00  2.9663581438760151e-02 -2.9289516945035202e-03 0.0000000000000000e+00  4.4816288781478093e-02 1.0874312480727094e-02 0.0000000000000000e+00  3.8657588905079712e-02 4.1014113321795036e-03 0.0000000000000000e+00  4.4222307315957624e-02 1.9664295861369443e-02 0.0000000000000000e+00  4.2214815078213619e-02 2.6963467135770386e-02 0.0000000000000000e+00  3.9674129312660400e-02 3.2541468987958774e-02 0.0000000000000000e+00  3.6868394185687582e-02 3.6436624681836310e-02 0.0000000000000000e+00  3.3954136949591200e-02 3.8735518226401811e-02 0.0000000000000000e+00  3.1052374030227335e-02 3.9547197430068244e-02 0.0000000000000000e+00  2.8260429442859086e-02 3.8995604774182534e-02 0.0000000000000000e+00  2.5655610628355828e-02 3.7215003960436067e-02 0.0000000000000000e+00  2.3297342506770267e-02 3.4346070138461401e-02 0.0000000000000000e+00  2.1229636039160137e-02 3.0533019416644731e-02 0.0000000000000000e+00  1.9484540402899105e-02 2.5921408268437692e-02 0.0000000000000000e+00  1.8083925447908423e-02 2.0656766874132270e-02 0.0000000000000000e+00  1.7043953522839484e-02 1.4884186176208739e-02 0.0000000000000000e+00  1.6374690082542658e-02 8.7481805047234622e-03 0.0000000000000000e+00  1.6085466486385293e-02 2.3937232324857684e-03 0.0000000000000000e+00  1.6181659259106553e-02 -4.0331192031100157e-03 0.0000000000000000e+00  1.6669887401559915e-02 -1.0383397752733454e-02 0.0000000000000000e+00  1.7552697754697678e-02 -1.6504346460633611e-02 0.0000000000000000e+00  1.8832424027831151e-02 -2.2237793111802458e-02 0.0000000000000000e+00  2.0504946558081424e-02 -2.7419412369118101e-02 0.0000000000000000e+00  2.2560814005079938e-02 -3.1878326456212532e-02 0.0000000000000000e+00  2.4979481341525774e-02 -3.5437395594251263e-02 0.0000000000000000e+00  2.7727694788468711e-02 -3.7914784123064350e-02 0.0000000000000000e+00  3.0754725844159975e-02 -3.9126272156317303e-02 0.0000000000000000e+00  3.3989342802686277e-02 -3.8889181504683547e-02 0.0000000000000000e+00  3.7334578417302977e-02 -3.7027289651665740e-02 0.0000000000000000e+00  4.0654750132377432e-02 -3.3377751323627830e-02 0.0000000000000000e+00  4.3718813992494700e-02 -2.7802392886846845e-02 0.0000000000000000e+00  4.5932229980431769e-02 -2.0225005626908491e-02 0.0000000000000000e+00  4.5200830573608873e-02 -1.0900633441061234e-02 0.0000000000000000e+00  3.5551860190523803e-02 -3.5458894787297867e-03 0.0000000000000000e+00  5.3548330352320574e-02 1.2315010883152981e-02 0.0000000000000000e+00  4.5947450551094872e-02 4.8334428114475822e-03 0.0000000000000000e+00  5.3059522695741344e-02 2.2190233458390936e-02 0.0000000000000000e+00  5.0966394540427035e-02 3.0312363770760641e-02 0.0000000000000000e+00  4.8329659714575320e-02 3.6432103773362465e-02 0.0000000000000000e+00  4.5456555579814539e-02 4.0619321828363905e-02 0.0000000000000000e+00  4.2516071243171062e-02 4.2999052437167756e-02 0.0000000000000000e+00  3.9632677658392755e-02 4.3719050186771420e-02 0.0000000000000000e+00  3.6901496084387170e-02 4.2940047431483955e-02 0.0000000000000000e+00  3.4393216716814480e-02 4.0829189940393813e-02 0.0000000000000000e+00  3.2157501387947207e-02 3.7555484422733439e-02 0.0000000000000000e+00  3.0226794548124110e-02 3.3285970326892157e-02 0.0000000000000000e+00  2.8620508095280228e-02 2.8183789816338789e-02 0.0000000000000000e+00  2.7349034350801275e-02 2.2406882693848589e-02 0.0000000000000000e+00  2.6417157516571060e-02 1.6108261566728541e-02 0.0000000000000000e+00  2.5827620314557084e-02 9.4369267344920835e-03 0.0000000000000000e+00  2.5582638470377745e-02 2.5394867349508724e-03 0.0000000000000000e+00  2.5686987944055099e-02 -4.4372771898299320e-03 0.0000000000000000e+00  