<?xml version="1.0"?>
<VTKFile type="UnstructuredGrid"  version="0.1"  >
<UnstructuredGrid>
<Piece  NumberOfPoints="759" NumberOfCells="1408">
<Points>
<DataArray  type="Float64"  NumberOfComponents="3"  format="ascii">0 0.46875 0  0.03125 0.46875 0  0.03125 0.515625 0  0 0.515625 0  0.0625 0.46875 0  0.0625 0.515625 0  0.09375 0.46875 0  0.09375 0.515625 0  0.125 0.46875 0  0.125 0.515625 0  0.15625 0.46875 0  0.15625 0.515625 0  0.1875 0.46875 0  0.1875 0.515625 0  0.21875 0.46875 0  0.21875 0.515625 0  0.25 0.46875 0  0.25 0.515625 0  0.28125 0.46875 0  0.28125 0.515625 0  0.3125 0.46875 0  0.3125 0.515625 0  0.34375 0.46875 0  0.34375 0.515625 0  0.375 0.46875 0  0.375 0.515625 0  0.40625 0.46875 0  0.40625 0.515625 0  0.4375 0.46875 0  0.4375 0.515625 0  0.46875 0.46875 0  0.46875 0.515625 0  0.5 0.46875 0  0.5 0.515625 0  0.53125 0.46875 0  0.53125 0.515625 0  0.5625 0.46875 0  0.5625 0.515625 0  0.59375 0.46875 0  0.59375 0.515625 0  0.625 0.46875 0  0.625 0.515625 0  0.65625 0.46875 0  0.65625 0.515625 0  0.6875 0.46875 0  0.6875 0.515625 0  0.71875 0.46875 0  0.71875 0.515625 0  0.75 0.46875 0  0.75 0.515625 0  0.78125 0.46875 0  0.78125 0.515625 0  0.8125 0.46875 0  0.8125 0.515625 0  0.84375 0.46875 0  0.84375 0.515625 0  0.875 0.46875 0  0.875 0.515625 0  0.90625 0.46875 0  0.90625 0.515625 0  0.9375 0.46875 0  0.9375 0.515625 0  0.96875 0.46875 0  0.96875 0.515625 0  1 0.46875 0  1 0.515625 0  0.03125 0.5625 0  0 0.5625 0  0.0625 0.5625 0  0.09375 0.5625 0  0.125 0.5625 0  0.15625 0.5625 0  0.1875 0.5625 0  0.21875 0.5625 0  0.25 0.5625 0  0.28125 0.5625 0  0.3125 0.5625 0  0.34375 0.5625 0  0.375 0.5625 0  0.40625 0.5625 0  0.4375 0.5625 0  0.46875 0.5625 0  0.5 0.5625 0  0.53125 0.5625 0  0.5625 0.5625 0  0.59375 0.5625 0  0.625 0.5625 0  0.65625 0.5625 0  0.6875 0.5625 0  0.71875 0.5625 0  0.75 0.5625 0  0.78125 0.5625 0  0.8125 0.5625 0  0.84375 0.5625 0  0.875 0.5625 0  0.90625 0.5625 0  0.9375 0.5625 0  0.96875 0.5625 0  1 0.5625 0  0.03125 0.609375 0  0 0.609375 0  0.0625 0.609375 0  0.09375 0.609375 0  0.125 0.609375 0  0.15625 0.609375 0  0.1875 0.609375 0  0.21875 0.609375 0  0.25 0.609375 0  0.28125 0.609375 0  0.3125 0.609375 0  0.34375 0.609375 0  0.375 0.609375 0  0.40625 0.609375 0  0.4375 0.609375 0  0.46875 0.609375 0  0.5 0.609375 0  0.53125 0.609375 0  0.5625 0.609375 0  0.59375 0.609375 0  0.625 0.609375 0  0.65625 0.609375 0  0.6875 0.609375 0  0.71875 0.609375 0  0.75 0.609375 0  0.78125 0.609375 0  0.8125 0.609375 0  0.84375 0.609375 0  0.875 0.609375 0  0.90625 0.609375 0  0.9375 0.609375 0  0.96875 0.609375 0  1 0.609375 0  0.03125 0.65625 0  0 0.65625 0  0.0625 0.65625 0  0.09375 0.65625 0  0.125 0.65625 0  0.15625 0.65625 0  0.1875 0.65625 0  0.21875 0.65625 0  0.25 0.65625 0  0.28125 0.65625 0  0.3125 0.65625 0  0.34375 0.65625 0  0.375 0.65625 0  0.40625 0.65625 0  0.4375 0.65625 0  0.46875 0.65625 0  0.5 0.65625 0  0.53125 0.65625 0  0.5625 0.65625 0  0.59375 0.65625 0  0.625 0.65625 0  0.65625 0.65625 0  0.6875 0.65625 0  0.71875 0.65625 0  0.75 0.65625 0  0.78125 0.65625 0  0.8125 0.65625 0  0.84375 0.65625 0  0.875 0.65625 0  0.90625 0.65625 0  0.9375 0.65625 0  0.96875 0.65625 0  1 0.65625 0  0.03125 0.703125 0  0 0.703125 0  0.0625 0.703125 0  0.09375 0.703125 0  0.125 0.703125 0  0.15625 0.703125 0  0.1875 0.703125 0  0.21875 0.703125 0  0.25 0.703125 0  0.28125 0.703125 0  0.3125 0.703125 0  0.34375 0.703125 0  0.375 0.703125 0  0.40625 0.703125 0  0.4375 0.703125 0  0.46875 0.703125 0  0.5 0.703125 0  0.53125 0.703125 0  0.5625 0.703125 0  0.59375 0.703125 0  0.625 0.703125 0  0.65625 0.703125 0  0.6875 0.703125 0  0.71875 0.703125 0  0.75 0.703125 0  0.78125 0.703125 0  0.8125 0.703125 0  0.84375 0.703125 0  0.875 0.703125 0  0.90625 0.703125 0  0.9375 0.703125 0  0.96875 0.703125 0  1 0.703125 0  0.03125 0.75 0  0 0.75 0  0.0625 0.75 0  0.09375 0.75 0  0.125 0.75 0  0.15625 0.75 0  0.1875 0.75 0  0.21875 0.75 0  0.25 0.75 0  0.28125 0.75 0  0.3125 0.75 0  0.34375 0.75 0  0.375 0.75 0  0.40625 0.75 0  0.4375 0.75 0  0.46875 0.75 0  0.5 0.75 0  0.53125 0.75 0  0.5625 0.75 0  0.59375 0.75 0  0.625 0.75 0  0.65625 0.75 0  0.6875 0.75 0  0.71875 0.75 0  0.75 0.75 0  0.78125 0.75 0  0.8125 0.75 0  0.84375 0.75 0  0.875 0.75 0  0.90625 0.75 0  0.9375 0.75 0  0.96875 0.75 0  1 0.75 0  0.03125 0.796875 0  0 0.796875 0  0.0625 0.796875 0  0.09375 0.796875 0  0.125 0.796875 0  0.15625 0.796875 0  0.1875 0.796875 0  0.21875 0.796875 0  0.25 0.796875 0  0.28125 0.796875 0  0.3125 0.796875 0  0.34375 0.796875 0  0.375 0.796875 0  0.40625 0.796875 0  0.4375 0.796875 0  0.46875 0.796875 0  0.5 0.796875 0  0.53125 0.796875 0  0.5625 0.796875 0  0.59375 0.796875 0  0.625 0.796875 0  0.65625 0.796875 0  0.6875 0.796875 0  0.71875 0.796875 0  0.75 0.796875 0  0.78125 0.796875 0  0.8125 0.796875 0  0.84375 0.796875 0  0.875 0.796875 0  0.90625 0.796875 0  0.9375 0.796875 0  0.96875 0.796875 0  1 0.796875 0  0.03125 0.84375 0  0 0.84375 0  0.0625 0.84375 0  0.09375 0.84375 0  0.125 0.84375 0  0.15625 0.84375 0  0.1875 0.84375 0  0.21875 0.84375 0  0.25 0.84375 0  0.28125 0.84375 0  0.3125 0.84375 0  0.34375 0.84375 0  0.375 0.84375 0  0.40625 0.84375 0  0.4375 0.84375 0  0.46875 0.84375 0  0.5 0.84375 0  0.53125 0.84375 0  0.5625 0.84375 0  0.59375 0.84375 0  0.625 0.84375 0  0.65625 0.84375 0  0.6875 0.84375 0  0.71875 0.84375 0  0.75 0.84375 0  0.78125 0.84375 0  0.8125 0.84375 0  0.84375 0.84375 0  0.875 0.84375 0  0.90625 0.84375 0  0.9375 0.84375 0  0.96875 0.84375 0  1 0.84375 0  0.03125 0.890625 0  0 0.890625 0  0.0625 0.890625 0  0.09375 0.890625 0  0.125 0.890625 0  0.15625 0.890625 0  0.1875 0.890625 0  0.21875 0.890625 0  0.25 0.890625 0  0.28125 0.890625 0  0.3125 0.890625 0  0.34375 0.890625 0  0.375 0.890625 0  0.40625 0.890625 0  0.4375 0.890625 0  0.46875 0.890625 0  0.5 0.890625 0  0.53125 0.890625 0  0.5625 0.890625 0  0.59375 0.890625 0  0.625 0.890625 0  0.65625 0.890625 0  0.6875 0.890625 0  0.71875 0.890625 0  0.75 0.890625 0  0.78125 0.890625 0  0.8125 0.890625 0  0.84375 0.890625 0  0.875 0.890625 0  0.90625 0.890625 0  0.9375 0.890625 0  0.96875 0.890625 0  1 0.890625 0  0.03125 0.9375 0  0 0.9375 0  0.0625 0.9375 0  0.09375 0.9375 0  0.125 0.9375 0  0.15625 0.9375 0  0.1875 0.9375 0  0.21875 0.9375 0  0.25 0.9375 0  0.28125 0.9375 0  0.3125 0.9375 0  0.34375 0.9375 0  0.375 0.9375 0  0.40625 0.9375 0  0.4375 0.9375 0  0.46875 0.9375 0  0.5 0.9375 0  0.53125 0.9375 0  0.5625 0.9375 0  0.59375 0.9375 0  0.625 0.9375 0  0.65625 0.9375 0  0.6875 0.9375 0  0.71875 0.9375 0  0.75 0.9375 0  0.78125 0.9375 0  0.8125 0.9375 0  0.84375 0.9375 0  0.875 0.9375 0  0.90625 0.9375 0  0.9375 0.9375 0  0.96875 0.9375 0  1 0.9375 0  0.03125 0.984375 0  0 0.984375 0  0.0625 0.984375 0  0.09375 0.984375 0  0.125 0.984375 0  0.15625 0.984375 0  0.1875 0.984375 0  0.21875 0.984375 0  0.25 0.984375 0  0.28125 0.984375 0  0.3125 0.984375 0  0.34375 0.984375 0  0.375 0.984375 0  0.40625 0.984375 0  0.4375 0.984375 0  0.46875 0.984375 0  0.5 0.984375 0  0.53125 0.984375 0  0.5625 0.984375 0  0.59375 0.984375 0  0.625 0.984375 0  0.65625 0.984375 0  0.6875 0.984375 0  0.71875 0.984375 0  0.75 0.984375 0  0.78125 0.984375 0  0.8125 0.984375 0  0.84375 0.984375 0  0.875 0.984375 0  0.90625 0.984375 0  0.9375 0.984375 0  0.96875 0.984375 0  1 0.984375 0  0.03125 1.03125 0  0 1.03125 0  0.0625 1.03125 0  0.09375 1.03125 0  0.125 1.03125 0  0.15625 1.03125 0  0.1875 1.03125 0  0.21875 1.03125 0  0.25 1.03125 0  0.28125 1.03125 0  0.3125 1.03125 0  0.34375 1.03125 0  0.375 1.03125 0  0.40625 1.03125 0  0.4375 1.03125 0  0.46875 1.03125 0  0.5 1.03125 0  0.53125 1.03125 0  0.5625 1.03125 0  0.59375 1.03125 0  0.625 1.03125 0  0.65625 1.03125 0  0.6875 1.03125 0  0.71875 1.03125 0  0.75 1.03125 0  0.78125 1.03125 0  0.8125 1.03125 0  0.84375 1.03125 0  0.875 1.03125 0  0.90625 1.03125 0  0.9375 1.03125 0  0.96875 1.03125 0  1 1.03125 0  0.03125 1.078125 0  0 1.078125 0  0.0625 1.078125 0  0.09375 1.078125 0  0.125 1.078125 0  0.15625 1.078125 0  0.1875 1.078125 0  0.21875 1.078125 0  0.25 1.078125 0  0.28125 1.078125 0  0.3125 1.078125 0  0.34375 1.078125 0  0.375 1.078125 0  0.40625 1.078125 0  0.4375 1.078125 0  0.46875 1.078125 0  0.5 1.078125 0  0.53125 1.078125 0  0.5625 1.078125 0  0.59375 1.078125 0  0.625 1.078125 0  0.65625 1.078125 0  0.6875 1.078125 0  0.71875 1.078125 0  0.75 1.078125 0  0.78125 1.078125 0  0.8125 1.078125 0  0.84375 1.078125 0  0.875 1.078125 0  0.90625 1.078125 0  0.9375 1.078125 0  0.96875 1.078125 0  1 1.078125 0  0.03125 1.125 0  0 1.125 0  0.0625 1.125 0  0.09375 1.125 0  0.125 1.125 0  0.15625 1.125 0  0.1875 1.125 0  0.21875 1.125 0  0.25 1.125 0  0.28125 1.125 0  0.3125 1.125 0  0.34375 1.125 0  0.375 1.125 0  0.40625 1.125 0  0.4375 1.125 0  0.46875 1.125 0  0.5 1.125 0  0.53125 1.125 0  0.5625 1.125 0  0.59375 1.125 0  0.625 1.125 0  0.65625 1.125 0  0.6875 1.125 0  0.71875 1.125 0  0.75 1.125 0  0.78125 1.125 0  0.8125 1.125 0  0.84375 1.125 0  0.875 1.125 0  0.90625 1.125 0  0.9375 1.125 0  0.96875 1.125 0  1 1.125 0  0.03125 1.171875 0  0 1.171875 0  0.0625 1.171875 0  0.09375 1.171875 0  0.125 1.171875 0  0.15625 1.171875 0  0.1875 1.171875 0  0.21875 1.171875 0  0.25 1.171875 0  0.28125 1.171875 0  0.3125 1.171875 0  0.34375 1.171875 0  0.375 1.171875 0  0.40625 1.171875 0  0.4375 1.171875 0  0.46875 1.171875 0  0.5 1.171875 0  0.53125 1.171875 0  0.5625 1.171875 0  0.59375 1.171875 0  0.625 1.171875 0  0.65625 1.171875 0  0.6875 1.171875 0  0.71875 1.171875 0  0.75 1.171875 0  0.78125 1.171875 0  0.8125 1.171875 0  0.84375 1.171875 0  0.875 1.171875 0  0.90625 1.171875 0  0.9375 1.171875 0  0.96875 1.171875 0  1 1.171875 0  0.03125 1.21875 0  0 1.21875 0  0.0625 1.21875 0  0.09375 1.21875 0  0.125 1.21875 0  0.15625 1.21875 0  0.1875 1.21875 0  0.21875 1.21875 0  0.25 1.21875 0  0.28125 1.21875 0  0.3125 1.21875 0  0.34375 1.21875 0  0.375 1.21875 0  0.40625 1.21875 0  0.4375 1.21875 0  0.46875 1.21875 0  0.5 1.21875 0  0.53125 1.21875 0  0.5
[...]
<PointData  Vectors="u"> 
<DataArray  type="Float64"  Name="u"  NumberOfComponents="3" format="ascii">1.4093410490959291e-02 7.1469747988060729e-04 0.0000000000000000e+00  1.6247532462305595e-02 3.9867103061755147e-03 0.0000000000000000e+00  1.7877149414449570e-02 4.2689734241850158e-03 0.0000000000000000e+00  1.5313841356220131e-02 9.3269236567602586e-04 0.0000000000000000e+00  1.5694949623455298e-02 7.2594869866253950e-03 0.0000000000000000e+00  1.7489876821965390e-02 7.8552675888521918e-03 0.0000000000000000e+00  1.4602765464823534e-02 1.0186155947662895e-02 0.0000000000000000e+00  1.6184474241103940e-02 1.1024447899684001e-02 0.0000000000000000e+00  1.3172492475393364e-02 1.2647239258172294e-02 0.0000000000000000e+00  1.4523819638041649e-02 1.3665008748349992e-02 0.0000000000000000e+00  1.1512085124166608e-02 1.4577027074598575e-02 0.0000000000000000e+00  1.2661065884300417e-02 1.5715389078516544e-02 0.0000000000000000e+00  9.7112172036334463e-03 1.5931254367777613e-02 0.0000000000000000e+00  1.0685334878054186e-02 1.7137250188546848e-02 0.0000000000000000e+00  7.8481748665773874e-03 1.6685902710719965e-02 0.0000000000000000e+00  8.6716505038948420e-03 1.7912653924120055e-02 0.0000000000000000e+00  5.9919243775081333e-03 1.6836910902659954e-02 0.0000000000000000e+00  6.6860107069615276e-03 1.8043123969443166e-02 0.0000000000000000e+00  4.2030794526045807e-03 1.6398956438125913e-02 0.0000000000000000e+00  4.7863082651482666e-03 1.7548515057358990e-02 0.0000000000000000e+00  2.5344993793857025e-03 1.5403828643537799e-02 0.0000000000000000e+00  3.0231447969672615e-03 1.6465376361638719e-02 0.0000000000000000e+00  1.0317941148080367e-03 1.3898477007558786e-02 0.0000000000000000e+00  1.4400356651862308e-03 1.4845143262870775e-02 0.0000000000000000e+00  -2.6630965881068710e-04 1.1943031814163689e-02 0.0000000000000000e+00  7.3968406828114918e-05 1.2752132429765120e-02 0.0000000000000000e+00  -1.3275830160322771e-03 9.6087239997108085e-03 0.0000000000000000e+00  -1.0444382624359456e-03 1.0261592240564742e-02 0.0000000000000000e+00  -2.1260729452926281e-03 6.9758933839134110e-03 0.0000000000000000e+00  -1.8905997105958792e-03 7.4576931285583225e-03 0.0000000000000000e+00  -2.6418980085906765e-03 4.1319629164442958e-03 0.0000000000000000e+00  -2.4459277216951178e-03 4.4316288449825717e-03 0.0000000000000000e+00  -2.8611272925192438e-03 1.1694974293092006e-03 0.0000000000000000e+00  -2.6976167918414799e-03 1.2796777539632938e-03 0.0000000000000000e+00  -2.7757173348308254e-03 -1.8157718275473402e-03 0.0000000000000000e+00  -2.6387476590428432e-03 -1.8986520212508687e-03 0.0000000000000000e+00  -2.3835722474205403e-03 -4.7268958709499962e-03 0.0000000000000000e+00  -2.2683188382522606e-03 -5.0025491266405308e-03 0.0000000000000000e+00  -1.6886358594455540e-03 -7.4677375906818779e-03 0.0000000000000000e+00  -1.5914845114618529e-03 -7.9318216657028474e-03 0.0000000000000000e+00  -7.0106490234534628e-04 -9.9450435321569441e-03 0.0000000000000000e+00  -6.1974145149421803e-04 -1.0588944942517973e-02 0.0000000000000000e+00  5.6253873362568257e-04 -1.2070650822062252e-02 0.0000000000000000e+00  6.2863986759921779e-04 -1.2881180377972451e-02 0.0000000000000000e+00  2.0788262893393864e-03 -1.3763780419663802e-02 0.0000000000000000e+00  2.1282672879453179e-03 -1.4722863932844105e-02 0.0000000000000000e+00  3.8174510056795462e-03 -1.4953491407276854e-02 0.0000000000000000e+00  3.8461348161698363e-03 -1.6037796695745451e-02 0.0000000000000000e+00  5.7407736815419221e-03 -1.5581210325110825e-02 0.0000000000000000e+00  5.7412538068158225e-03 -1.6761795100747146e-02 0.0000000000000000e+00  7.8036350364932812e-03 -1.5603369085338901e-02 0.0000000000000000e+00  7.7641422102565820e-03 -1.6845286660156101e-02 0.0000000000000000e+00  9.9529694185900193e-03 -1.4994037829235845e-02 0.0000000000000000e+00  9.8564353064625500e-03 -1.6255953132082605e-02 0.0000000000000000e+00  1.2126571501169076e-02 -1.3747566121112781e-02 0.0000000000000000e+00  1.1949718449499859e-02 -1.4981272259546588e-02 0.0000000000000000e+00  1.4247492124124524e-02 -1.1881289356904494e-02 0.0000000000000000e+00  1.3961537416017163e-02 -1.3031014565955887e-02 0.0000000000000000e+00  1.6197844305723488e-02 -9.4393365101561096e-03 0.0000000000000000e+00  1.5776425341431588e-02 -1.0440270367202915e-02 0.0000000000000000e+00  1.7699946818833006e-02 -6.5042194399487106e-03 0.0000000000000000e+00  1.7159752713416805e-02 -7.2780386620338927e-03 0.0000000000000000e+00  1.7877125021392735e-02 -3.2686457318728936e-03 0.0000000000000000e+00  1.7412852105229554e-02 -3.7000807641798280e-03 0.0000000000000000e+00  1.5150894806122469e-02 -3.0026609126564726e-04 0.0000000000000000e+00  1.4554102665876324e-02 -4.1173763272855723e-04 0.0000000000000000e+00  1.9778273483387836e-02 5.0640522627595132e-03 0.0000000000000000e+00  1.7146690190563457e-02 1.3987928782513359e-03 0.0000000000000000e+00  1.9270526273809391e-02 9.3073161433908421e-03 0.0000000000000000e+00  1.7891753441654282e-02 1.3003959720321506e-02 0.0000000000000000e+00  1.6123067440329791e-02 1.6027055587641264e-02 0.0000000000000000e+00  1.4133722951386974e-02 1.8328098307329597e-02 0.0000000000000000e+00  1.2026096862186494e-02 1.9882706642442551e-02 0.0000000000000000e+00  9.8815053805656663e-03 2.0686222457153493e-02 0.0000000000000000e+00  7.7701176375976127e-03 2.0752785470482437e-02 0.0000000000000000e+00  5.7534682193368927e-03 2.0114030309735423e-02 0.0000000000000000e+00  3.8846266818590618e-03 1.8817572556779003e-02 0.0000000000000000e+00  2.2091901647176412e-03 1.6925147787585710e-02 0.0000000000000000e+00  7.6534233610672927e-04 1.4510802558936801e-02 0.0000000000000000e+00  -4.1525354123525310e-04 1.1658917461862567e-02 0.0000000000000000e+00  -1.3075236319423599e-03 8.4624390465502571e-03 0.0000000000000000e+00  -1.8923284352304393e-03 5.0209972262949135e-03 0.0000000000000000e+00  -2.1565758716205570e-03 1.4392423446470595e-03 0.0000000000000000e+00  -2.0929263116890705e-03 -2.1749461536491603e-03 0.0000000000000000e+00  -1.7001253568630994e-03 -5.7121061642916304e-03 0.0000000000000000e+00  -9.8298528334539838e-04 -9.0630245366641205e-03 0.0000000000000000e+00  4.7063414462533026e-05 -1.2120537226528290e-02 0.0000000000000000e+00  1.3716851648190793e-03 -1.4781565923971287e-02 0.0000000000000000e+00  2.9648526126638962e-03 -1.6949219632492466e-02 0.0000000000000000e+00  4.7924612483639054e-03 -1.8535148042742155e-02 0.0000000000000000e+00  6.8114551972455134e-03 -1.9461972859311810e-02 0.0000000000000000e+00  8.9694171500742468e-03 -1.9665892323561137e-02 0.0000000000000000e+00  1.1203693820762804e-02 -1.9099238805562458e-02 0.0000000000000000e+00  1.3440320685879881e-02 -1.7732994651395339e-02 0.0000000000000000e+00  1.5589265806144278e-02 -1.5559128805340860e-02 0.0000000000000000e+00  1.7523447443719854e-02 -1.2593548113341799e-02 0.0000000000000000e+00  1.8979699120994776e-02 -8.8858967630156688e-03 0.0000000000000000e+00  1.9141658775654630e-02 -4.5958946824994785e-03 0.0000000000000000e+00  1.5645529492381946e-02 -8.5895297128033270e-04 0.0000000000000000e+00  2.2654438301214681e-02 6.0263894054480146e-03 0.0000000000000000e+00  1.9733826186554327e-02 1.8645455052336769e-03 0.0000000000000000e+00  2.2068536872428421e-02 1.1034953337727638e-02 0.0000000000000000e+00  2.0570416143600258e-02 1.5349310392993405e-02 0.0000000000000000e+00  1.8658052674016587e-02 1.8821172717112613e-02 0.0000000000000000e+00  1.6508276777904361e-02 2.1414495374158619e-02 0.0000000000000000e+00  1.4231059862382212e-02 2.3121049752159582e-02 0.0000000000000000e+00  1.1915631381766946e-02 2.3952427730675654e-02 0.0000000000000000e+00  9.6392790705402877e-03 2.3938269499721613e-02 0.0000000000000000e+00  7.4683653494595544e-03 2.3124845923568019e-02 0.0000000000000000e+00  5.4602580082455101e-03 2.1573353198632819e-02 0.0000000000000000e+00  3.6629540594168438e-03 1.9358169115562533e-02 0.0000000000000000e+00  2.1168731916615833e-03 1.6564932847416301e-02 0.0000000000000000e+00  8.5453222185308980e-04 1.3288848153649771e-02 0.0000000000000000e+00  -9.7922084778707873e-05 9.6328665740022853e-03 0.0000000000000000e+00  -7.2109176792348011e-04 5.7062170102458142e-03 0.0000000000000000e+00  -1.0011638514661793e-03 1.6227608511552062e-03 0.0000000000000000e+00  -9.3050584530683482e-04 -2.5003147268306404e-03 0.0000000000000000e+00  -5.0707889999491182e-04 -6.5440672692698145e-03 0.0000000000000000e+00  2.6474047532732699e-04 -1.0389152493652075e-02 0.0000000000000000e+00  1.3742303613753933e-03 -1.3917524131956457e-02 0.0000000000000000e+00  2.8031461082628751e-03 -1.7014077952784208e-02 0.0000000000000000e+00  4.5253963320601069e-03 -1.9568674783188106e-02 0.0000000000000000e+00  6.5056843446387545e-03 -2.1478237875477754e-02 0.0000000000000000e+00  8.6990307397785543e-03 -2.2649178697294891e-02 0.0000000000000000e+00  1.1049393561404124e-02 -2.2999898548836700e-02 0.0000000000000000e+00  1.3489214944728345e-02 -2.2463439178193805e-02 0.0000000000000000e+00  1.5937392381656399e-02 -2.0990049475903383e-02 0.0000000000000000e+00  1.8294257804332699e-02 -1.8549788593908226e-02 0.0000000000000000e+00  2.0415857536014204e-02 -1.5136151408527823e-02 0.0000000000000000e+00  2.1993964751174419e-02 -1.0779694812859725e-02 0.0000000000000000e+00  2.2047455786698981e-02 -5.6573518694243959e-03 0.0000000000000000e+00  1.7806130714633963e-02 -1.3600370962500578e-03 0.0000000000000000e+00  2.6525266680625503e-02 7.0913375254795744e-03 0.0000000000000000e+00  2.3119369695568714e-02 2.3484493379293944e-03 0.0000000000000000e+00  2.5889255089201403e-02 1.2942453367306419e-02 0.0000000000000000e+00  2.4259793663044978e-02 1.7931739417662785e-02 0.0000000000000000e+00  2.2184823913955081e-02 2.1890459401204324e-02 0.0000000000000000e+00  1.9854328407950567e-02 2.4796930794261682e-02 0.0000000000000000e+00  1.7388566089374058e-02 2.6661229844674398e-02 0.0000000000000000e+00  1.4886119026098378e-02 2.7513646262003616e-02 0.0000000000000000e+00  1.2430784136285138e-02 2.7401914463675417e-02 0.0000000000000000e+00  1.0095064035854738e-02 2.6389373952046578e-02 0.0000000000000000e+00  7.9394782910327689e-03 2.4553025361860461e-02 0.0000000000000000e+00  6.0152224660296695e-03 2.1981638083945865e-02 0.0000000000000000e+00  4.3633768755890001e-03 1.8773906171665265e-02 0.0000000000000000e+00  3.0178013768908827e-03 1.5036716888924188e-02 0.0000000000000000e+00  2.0041536981689400e-03 1.0883702656818156e-02 0.0000000000000000e+00  1.3425091663085314e-03 6.4338007861628049e-03 0.0000000000000000e+00  1.0462211865133722e-03 1.8102180220865311e-03 0.0000000000000000e+00  1.1238455516875505e-03 -2.8608037954276195e-03 0.0000000000000000e+00  1.5776341787375353e-03 -7.4508234829152482e-03 0.0000000000000000e+00  2.4046402752889713e-03 -1.1830448154586521e-02 0.0000000000000000e+00  3.5948751864692623e-03 -1.5870336234154080e-02 0.0000000000000000e+00  5.1315205164941605e-03 -1.9442729063199427e-02 0.0000000000000000e+00  6.9887663618005578e-03 -2.2422965639322237e-02 0.0000000000000000e+00  9.1315251671343928e-03 -2.4691516793432563e-02 0.0000000000000000e+00  1.1513205469063351e-02 -2.6136185332910646e-02 0.0000000000000000e+00  1.4075206970320175e-02 -2.6654692467225648e-02 0.0000000000000000e+00  1.6744962320381362e-02 -2.6157435416190446e-02 0.0000000000000000e+00  1.9434563348466719e-02 -2.4570414192271513e-02 0.0000000000000000e+00  2.2033663986082759e-02 -2.1838430996531960e-02 0.0000000000000000e+00  2.4379145320429903e-02 -1.7930030697799852e-02 0.0000000000000000e+00  2.6107863453415675e-02 -1.2855935944587856e-02 0.0000000000000000e+00  2.6036217720046721e-02 -6.8131310295302238e-03 0.0000000000000000e+00  2.0852122048168935e-02 -1.8584121263229782e-03 0.0000000000000000e+00  3.1436988551004276e-02 8.2547977993055500e-03 0.0000000000000000e+00  2.7345413154834287e-02 2.8720307261150221e-03 0.0000000000000000e+00  3.0778639529499680e-02 1.5020317514564655e-02 0.0000000000000000e+00  2.9013951816705349e-02 2.0736600969823323e-02 0.0000000000000000e+00  2.6770462640188376e-02 2.5214674172541605e-02 0.0000000000000000e+00  2.4257510707277701e-02 2.8449092977321157e-02 0.0000000000000000e+00  2.1607345365789499e-02 3.0471100131902511e-02 0.0000000000000000e+00  1.8926598456858863e-02 3.1332693208393200e-02 0.0000000000000000e+00  1.6306361755458052e-02 3.1102818941414569e-02 0.0000000000000000e+00  1.3822691573065480e-02 2.9864690505395704e-02 0.0000000000000000e+00  1.1539648741175889e-02 2.7713604591710336e-02 0.0000000000000000e+00  9.5083859176056315e-03 2.4754651685940116e-02 0.0000000000000000e+00  7.7710217615316211e-03 2.1100947103227026e-02 0.0000000000000000e+00  6.3594232756245556e-03 1.6871904651174927e-02 0.0000000000000000e+00  5.2993862127382841e-03 1.2192039257016497e-02 0.0000000000000000e+00  4.6087789295133613e-03 7.1899388807347255e-03 0.0000000000000000e+00  4.3015556756843100e-03 1.9975207567231889e-03 0.0000000000000000e+00  4.3852023513765142e-03 -3.2504407599262212e-03 0.0000000000000000e+00  4.8637834252509785e-03 -8.4168881959774157e-03 0.0000000000000000e+00  5.7349408737161194e-03 -1.3362783200011778e-02 0.0000000000000000e+00  6.9916153822981294e-03 -1.7947883950198907e-02 0.0000000000000000e+00  8.6186860710967608e-03 -2.2031415118082327e-02 0.0000000000000000e+00  1.0593290497782350e-02 -2.5473411908060621e-02 0.0000000000000000e+00  1.2881536885866801e-02 -2.8136236151035224e-02 0.0000000000000000e+00  1.5437949565407685e-02 -2.9886745358127256e-02 0.0000000000000000e+00  1.8202533150921921e-02 -3.0598855365335801e-02 0.0000000000000000e+00  2.1099926523361082e-02 -3.0156588353785832e-02 0.0000000000000000e+00  2.4036045245971766e-02 -2.8457561389230317e-02 0.0000000000000000e+00  2.6890589462345370e-02 -2.5417083968129917e-02 0.0000000000000000e+00  2.9478972765311928e-02 -2.0974870867370543e-02 0.0000000000000000e+00  3.1373028401783118e-02 -1.5118891797670462e-02 0.0000000000000000e+00  3.1141233372552198e-02 -8.0667615052504808e-03 0.0000000000000000e+00  2.4773722593033586e-02 -2.3732929166806189e-03 0.0000000000000000e+00  3.7482668308647001e-02 9.5171242401083586e-03 0.0000000000000000e+00  3.2485605715896239e-02 3.4521256416474911e-03 0.0000000000000000e+00  3.6834760005685113e-02 1.7264830804633584e-02 0.0000000000000000e+00  3.4940399194897102e-02 2.3754629767258527e-02 0.0000000000000000e+00  3.2536290235999438e-02 2.8776723289642470e-02 0.0000000000000000e+00  2.9858045274154341e-02 3.2345129470550328e-02 0.0000000000000000e+00  2.7049687065964223e-02 3.4516025347478281e-02 0.0000000000000000e+00  2.4226104438150455e-02 3.5367220605594357e-02 0.0000000000000000e+00  2.1482600446949968e-02 3.4992657729470071e-02 0.0000000000000000e+00  1.8898121978310738e-02 3.3498988347776239e-02 0.0000000000000000e+00  1.6535797790640211e-02 3.1002538900412633e-02 0.0000000000000000e+00  1.4446166305659227e-02 2.7626941143837434e-02 0.0000000000000000e+00  1.2667253053135026e-02 2.3500940550387105e-02 0.0000000000000000e+00  1.1229165926870472e-02 1.8757106706713281e-02 0.0000000000000000e+00  1.0152830863127725e-02 1.3530616782370853e-02 0.0000000000000000e+00  9.4553210099864934e-03 7.9589857671848729e-03 0.0000000000000000e+00  9.1470450501526957e-03 2.1816949305470392e-03 0.0000000000000000e+00  9.2369260438686235e-03 -3.6594526257916976e-03 0.0000000000000000e+00  9.7281388065957406e-03 -9.4201613892614389e-03 0.0000000000000000e+00  1.0622221114275316e-02 -1.4953244771713337e-02 0.0000000000000000e+00  1.1914186487061017e-02 -2.0108406421843521e-02 0.0000000000000000e+00  1.3594488865858524e-02 -2.4732412801025384e-02 0.0000000000000000e+00  1.5644164405953342e-02 -2.8669521045206238e-02 0.0000000000000000e+00  1.8034728484279016e-02 -3.1762749860565209e-02 0.0000000000000000e+00  2.0723951653133985e-02 -3.3855618232890246e-02 0.0000000000000000e+00  2.3654432081666357e-02 -3.4794833723849269e-02 0.0000000000000000e+00  2.6750317043769380e-02 -3.4433642156617622e-02 0.0000000000000000e+00  2.9914224173275945e-02 -3.2636054609121772e-02 0.0000000000000000e+00  3.3016781532002097e-02 -2.9282165758888656e-02 0.0000000000000000e+00  3.5850661799574919e-02 -2.4276961628778179e-02 0.0000000000000000e+00  3.7910953575051684e-02 -1.7580391917688700e-02 0.0000000000000000e+00  3.7465817641193014e-02 -9.4300237232381786e-03 0.0000000000000000e+00  2.9629817961721958e-02 -2.9293397552238652e-03 0.0000000000000000e+00  4.4792303803313130e-02 1.0874104023706874e-02 0.0000000000000000e+00  3.8640413824020586e-02 4.1023219454678116e-03 0.0000000000000000e+00  4.4196711977558700e-02 1.9663364928659575e-02 0.0000000000000000e+00  4.2188650499227570e-02 2.6961388248544590e-02 0.0000000000000000e+00  3.9647407124855219e-02 3.2537790176089383e-02 0.0000000000000000e+00  3.6840955629906753e-02 3.6430930482697799e-02 0.0000000000000000e+00  3.3925822932228546e-02 3.8727439922891946e-02 0.0000000000000000e+00  3.1023053171677015e-02 3.9536418200556540e-02 0.0000000000000000e+00  2.8230000132832986e-02 3.8981864234377925e-02 0.0000000000000000e+00  2.5623998903292488e-02 3.7198102505461968e-02 0.0000000000000000e+00  2.3264499780336387e-02 3.4325873002372984e-02 0.0000000000000000e+00  2.1195537281172346e-02 3.0509460274084545e-02 0.0000000000000000e+00  1.9449182621768819e-02 2.5894492236221457e-02 0.0000000000000000e+00  1.8047326422167997e-02 2.0626572765272671e-02 0.0000000000000000e+00  1.7006150570968985e-02 1.4850867884002049e-02 0.0000000000000000e+00  1.6335738873668178e-02 8.7119674259267949e-03 0.0000000000000000e+00  1.6045439488176983e-02 2.3549196129201829e-03 0.0000000000000000e+00  1.6140644125636733e-02 -4.0741360488748589e-03 0.0000000000000000e+00  1.6627984831741310e-02 -1.0426180454416371e-02 0.0000000000000000e+00  1.7510019065264771e-02 -1.6548381870105770e-02 0.0000000000000000e+00  1.8789087980872778e-02 -2.2282507927145603e-02 0.0000000000000000e+00  2.0461075873840245e-02 -2.7464180135605278e-02 0.0000000000000000e+00  2.2516531117941004e-02 -3.1922475979675964e-02 0.0000000000000000e+00  2.4934903575713901e-02 -3.5480220777645302e-02 0.0000000000000000e+00  2.7682928908081744e-02 -3.7955555174558842e-02 0.0000000000000000e+00  3.0709862090325710e-02 -3.9164248118894053e-02 0.0000000000000000e+00  3.3944448348436150e-02 -3.8923623938480562e-02 0.0000000000000000e+00  3.7289691285830290e-02 -3.7057477287303416e-02 0.0000000000000000e+00  4.0609878024753063e-02 -3.3402995453746975e-02 0.0000000000000000e+00  4.3673964155986456e-02 -2.7822053583587712e-02 0.0000000000000000e+00  4.5887614595733303e-02 -2.0238511645510150e-02 0.0000000000000000e+00  4.5158001487832389e-02 -1.0907536741137895e-02 0.0000000000000000e+00  3.5518860499764771e-02 -3.5463545146084928e-03 0.0000000000000000e+00  5.3526384694566581e-02 1.2315133426102104e-02 0.0000000000000000e+00  4.5931859035438651e-02 4.8343937377303354e-03 0.0000000000000000e+00  5.3036066990157719e-02 2.2189942409852125e-02 0.0000000000000000e+00  5.0942412964297995e-02 3.0311201324183062e-02 0.0000000000000000e+00  4.8305160483960469e-02 3.6429582422916357e-02 0.0000000000000000e+00  4.5431381486892970e-02 4.0614991443136683e-02 0.0000000000000000e+00  4.2490061863131569e-02 4.2992510870117580e-02 0.0000000000000000e+00  3.9605696829376265e-02 4.3709948329154640e-02 0.0000000000000000e+00  3.6873434514318786e-02 4.2928093545461288e-02 0.0000000000000000e+00  3.4363990546200540e-02 4.0814153806703612e-02 0.0000000000000000e+00  3.2127050565056270e-02 3.7537201231003361e-02 0.0000000000000000e+00  3.0195081572177315e-02 3.3264344198616680e-02 0.0000000000000000e+00  2.8587517029122315e-02 2.8158796797071700e-02 0.0000000000000000e+00  2.7314770014072374e-02 2.2378573123014667e-02 0.0000000000000000e+00  2.6381644741890194e-02 1.6076761674961901e-02 0.0000000000000000e+00  2.5790903109125237e-02 9.4024393943038746e-03 0.0000000000000000e+00  2.5544778968539142e-02 2.5022912646650115e-03 0.0000000000000000e+00  2.5648065032992638e-02 -4.4768262746605163e-03 0.0000000000000000e+00  