<?xml version="1.0"?>
<VTKFile type="UnstructuredGrid"  version="0.1"  >
<UnstructuredGrid>
<Piece  NumberOfPoints="759" NumberOfCells="1408">
<Points>
<DataArray  type="Float64"  NumberOfComponents="3"  format="ascii">0 0.46875 0  0.03125 0.46875 0  0.03125 0.515625 0  0 0.515625 0  0.0625 0.46875 0  0.0625 0.515625 0  0.09375 0.46875 0  0.09375 0.515625 0  0.125 0.46875 0  0.125 0.515625 0  0.15625 0.46875 0  0.15625 0.515625 0  0.1875 0.46875 0  0.1875 0.515625 0  0.21875 0.46875 0  0.21875 0.515625 0  0.25 0.46875 0  0.25 0.515625 0  0.28125 0.46875 0  0.28125 0.515625 0  0.3125 0.46875 0  0.3125 0.515625 0  0.34375 0.46875 0  0.34375 0.515625 0  0.375 0.46875 0  0.375 0.515625 0  0.40625 0.46875 0  0.40625 0.515625 0  0.4375 0.46875 0  0.4375 0.515625 0  0.46875 0.46875 0  0.46875 0.515625 0  0.5 0.46875 0  0.5 0.515625 0  0.53125 0.46875 0  0.53125 0.515625 0  0.5625 0.46875 0  0.5625 0.515625 0  0.59375 0.46875 0  0.59375 0.515625 0  0.625 0.46875 0  0.625 0.515625 0  0.65625 0.46875 0  0.65625 0.515625 0  0.6875 0.46875 0  0.6875 0.515625 0  0.71875 0.46875 0  0.71875 0.515625 0  0.75 0.46875 0  0.75 0.515625 0  0.78125 0.46875 0  0.78125 0.515625 0  0.8125 0.46875 0  0.8125 0.515625 0  0.84375 0.46875 0  0.84375 0.515625 0  0.875 0.46875 0  0.875 0.515625 0  0.90625 0.46875 0  0.90625 0.515625 0  0.9375 0.46875 0  0.9375 0.515625 0  0.96875 0.46875 0  0.96875 0.515625 0  1 0.46875 0  1 0.515625 0  0.03125 0.5625 0  0 0.5625 0  0.0625 0.5625 0  0.09375 0.5625 0  0.125 0.5625 0  0.15625 0.5625 0  0.1875 0.5625 0  0.21875 0.5625 0  0.25 0.5625 0  0.28125 0.5625 0  0.3125 0.5625 0  0.34375 0.5625 0  0.375 0.5625 0  0.40625 0.5625 0  0.4375 0.5625 0  0.46875 0.5625 0  0.5 0.5625 0  0.53125 0.5625 0  0.5625 0.5625 0  0.59375 0.5625 0  0.625 0.5625 0  0.65625 0.5625 0  0.6875 0.5625 0  0.71875 0.5625 0  0.75 0.5625 0  0.78125 0.5625 0  0.8125 0.5625 0  0.84375 0.5625 0  0.875 0.5625 0  0.90625 0.5625 0  0.9375 0.5625 0  0.96875 0.5625 0  1 0.5625 0  0.03125 0.609375 0  0 0.609375 0  0.0625 0.609375 0  0.09375 0.609375 0  0.125 0.609375 0  0.15625 0.609375 0  0.1875 0.609375 0  0.21875 0.609375 0  0.25 0.609375 0  0.28125 0.609375 0  0.3125 0.609375 0  0.34375 0.609375 0  0.375 0.609375 0  0.40625 0.609375 0  0.4375 0.609375 0  0.46875 0.609375 0  0.5 0.609375 0  0.53125 0.609375 0  0.5625 0.609375 0  0.59375 0.609375 0  0.625 0.609375 0  0.65625 0.609375 0  0.6875 0.609375 0  0.71875 0.609375 0  0.75 0.609375 0  0.78125 0.609375 0  0.8125 0.609375 0  0.84375 0.609375 0  0.875 0.609375 0  0.90625 0.609375 0  0.9375 0.609375 0  0.96875 0.609375 0  1 0.609375 0  0.03125 0.65625 0  0 0.65625 0  0.0625 0.65625 0  0.09375 0.65625 0  0.125 0.65625 0  0.15625 0.65625 0  0.1875 0.65625 0  0.21875 0.65625 0  0.25 0.65625 0  0.28125 0.65625 0  0.3125 0.65625 0  0.34375 0.65625 0  0.375 0.65625 0  0.40625 0.65625 0  0.4375 0.65625 0  0.46875 0.65625 0  0.5 0.65625 0  0.53125 0.65625 0  0.5625 0.65625 0  0.59375 0.65625 0  0.625 0.65625 0  0.65625 0.65625 0  0.6875 0.65625 0  0.71875 0.65625 0  0.75 0.65625 0  0.78125 0.65625 0  0.8125 0.65625 0  0.84375 0.65625 0  0.875 0.65625 0  0.90625 0.65625 0  0.9375 0.65625 0  0.96875 0.65625 0  1 0.65625 0  0.03125 0.703125 0  0 0.703125 0  0.0625 0.703125 0  0.09375 0.703125 0  0.125 0.703125 0  0.15625 0.703125 0  0.1875 0.703125 0  0.21875 0.703125 0  0.25 0.703125 0  0.28125 0.703125 0  0.3125 0.703125 0  0.34375 0.703125 0  0.375 0.703125 0  0.40625 0.703125 0  0.4375 0.703125 0  0.46875 0.703125 0  0.5 0.703125 0  0.53125 0.703125 0  0.5625 0.703125 0  0.59375 0.703125 0  0.625 0.703125 0  0.65625 0.703125 0  0.6875 0.703125 0  0.71875 0.703125 0  0.75 0.703125 0  0.78125 0.703125 0  0.8125 0.703125 0  0.84375 0.703125 0  0.875 0.703125 0  0.90625 0.703125 0  0.9375 0.703125 0  0.96875 0.703125 0  1 0.703125 0  0.03125 0.75 0  0 0.75 0  0.0625 0.75 0  0.09375 0.75 0  0.125 0.75 0  0.15625 0.75 0  0.1875 0.75 0  0.21875 0.75 0  0.25 0.75 0  0.28125 0.75 0  0.3125 0.75 0  0.34375 0.75 0  0.375 0.75 0  0.40625 0.75 0  0.4375 0.75 0  0.46875 0.75 0  0.5 0.75 0  0.53125 0.75 0  0.5625 0.75 0  0.59375 0.75 0  0.625 0.75 0  0.65625 0.75 0  0.6875 0.75 0  0.71875 0.75 0  0.75 0.75 0  0.78125 0.75 0  0.8125 0.75 0  0.84375 0.75 0  0.875 0.75 0  0.90625 0.75 0  0.9375 0.75 0  0.96875 0.75 0  1 0.75 0  0.03125 0.796875 0  0 0.796875 0  0.0625 0.796875 0  0.09375 0.796875 0  0.125 0.796875 0  0.15625 0.796875 0  0.1875 0.796875 0  0.21875 0.796875 0  0.25 0.796875 0  0.28125 0.796875 0  0.3125 0.796875 0  0.34375 0.796875 0  0.375 0.796875 0  0.40625 0.796875 0  0.4375 0.796875 0  0.46875 0.796875 0  0.5 0.796875 0  0.53125 0.796875 0  0.5625 0.796875 0  0.59375 0.796875 0  0.625 0.796875 0  0.65625 0.796875 0  0.6875 0.796875 0  0.71875 0.796875 0  0.75 0.796875 0  0.78125 0.796875 0  0.8125 0.796875 0  0.84375 0.796875 0  0.875 0.796875 0  0.90625 0.796875 0  0.9375 0.796875 0  0.96875 0.796875 0  1 0.796875 0  0.03125 0.84375 0  0 0.84375 0  0.0625 0.84375 0  0.09375 0.84375 0  0.125 0.84375 0  0.15625 0.84375 0  0.1875 0.84375 0  0.21875 0.84375 0  0.25 0.84375 0  0.28125 0.84375 0  0.3125 0.84375 0  0.34375 0.84375 0  0.375 0.84375 0  0.40625 0.84375 0  0.4375 0.84375 0  0.46875 0.84375 0  0.5 0.84375 0  0.53125 0.84375 0  0.5625 0.84375 0  0.59375 0.84375 0  0.625 0.84375 0  0.65625 0.84375 0  0.6875 0.84375 0  0.71875 0.84375 0  0.75 0.84375 0  0.78125 0.84375 0  0.8125 0.84375 0  0.84375 0.84375 0  0.875 0.84375 0  0.90625 0.84375 0  0.9375 0.84375 0  0.96875 0.84375 0  1 0.84375 0  0.03125 0.890625 0  0 0.890625 0  0.0625 0.890625 0  0.09375 0.890625 0  0.125 0.890625 0  0.15625 0.890625 0  0.1875 0.890625 0  0.21875 0.890625 0  0.25 0.890625 0  0.28125 0.890625 0  0.3125 0.890625 0  0.34375 0.890625 0  0.375 0.890625 0  0.40625 0.890625 0  0.4375 0.890625 0  0.46875 0.890625 0  0.5 0.890625 0  0.53125 0.890625 0  0.5625 0.890625 0  0.59375 0.890625 0  0.625 0.890625 0  0.65625 0.890625 0  0.6875 0.890625 0  0.71875 0.890625 0  0.75 0.890625 0  0.78125 0.890625 0  0.8125 0.890625 0  0.84375 0.890625 0  0.875 0.890625 0  0.90625 0.890625 0  0.9375 0.890625 0  0.96875 0.890625 0  1 0.890625 0  0.03125 0.9375 0  0 0.9375 0  0.0625 0.9375 0  0.09375 0.9375 0  0.125 0.9375 0  0.15625 0.9375 0  0.1875 0.9375 0  0.21875 0.9375 0  0.25 0.9375 0  0.28125 0.9375 0  0.3125 0.9375 0  0.34375 0.9375 0  0.375 0.9375 0  0.40625 0.9375 0  0.4375 0.9375 0  0.46875 0.9375 0  0.5 0.9375 0  0.53125 0.9375 0  0.5625 0.9375 0  0.59375 0.9375 0  0.625 0.9375 0  0.65625 0.9375 0  0.6875 0.9375 0  0.71875 0.9375 0  0.75 0.9375 0  0.78125 0.9375 0  0.8125 0.9375 0  0.84375 0.9375 0  0.875 0.9375 0  0.90625 0.9375 0  0.9375 0.9375 0  0.96875 0.9375 0  1 0.9375 0  0.03125 0.984375 0  0 0.984375 0  0.0625 0.984375 0  0.09375 0.984375 0  0.125 0.984375 0  0.15625 0.984375 0  0.1875 0.984375 0  0.21875 0.984375 0  0.25 0.984375 0  0.28125 0.984375 0  0.3125 0.984375 0  0.34375 0.984375 0  0.375 0.984375 0  0.40625 0.984375 0  0.4375 0.984375 0  0.46875 0.984375 0  0.5 0.984375 0  0.53125 0.984375 0  0.5625 0.984375 0  0.59375 0.984375 0  0.625 0.984375 0  0.65625 0.984375 0  0.6875 0.984375 0  0.71875 0.984375 0  0.75 0.984375 0  0.78125 0.984375 0  0.8125 0.984375 0  0.84375 0.984375 0  0.875 0.984375 0  0.90625 0.984375 0  0.9375 0.984375 0  0.96875 0.984375 0  1 0.984375 0  0.03125 1.03125 0  0 1.03125 0  0.0625 1.03125 0  0.09375 1.03125 0  0.125 1.03125 0  0.15625 1.03125 0  0.1875 1.03125 0  0.21875 1.03125 0  0.25 1.03125 0  0.28125 1.03125 0  0.3125 1.03125 0  0.34375 1.03125 0  0.375 1.03125 0  0.40625 1.03125 0  0.4375 1.03125 0  0.46875 1.03125 0  0.5 1.03125 0  0.53125 1.03125 0  0.5625 1.03125 0  0.59375 1.03125 0  0.625 1.03125 0  0.65625 1.03125 0  0.6875 1.03125 0  0.71875 1.03125 0  0.75 1.03125 0  0.78125 1.03125 0  0.8125 1.03125 0  0.84375 1.03125 0  0.875 1.03125 0  0.90625 1.03125 0  0.9375 1.03125 0  0.96875 1.03125 0  1 1.03125 0  0.03125 1.078125 0  0 1.078125 0  0.0625 1.078125 0  0.09375 1.078125 0  0.125 1.078125 0  0.15625 1.078125 0  0.1875 1.078125 0  0.21875 1.078125 0  0.25 1.078125 0  0.28125 1.078125 0  0.3125 1.078125 0  0.34375 1.078125 0  0.375 1.078125 0  0.40625 1.078125 0  0.4375 1.078125 0  0.46875 1.078125 0  0.5 1.078125 0  0.53125 1.078125 0  0.5625 1.078125 0  0.59375 1.078125 0  0.625 1.078125 0  0.65625 1.078125 0  0.6875 1.078125 0  0.71875 1.078125 0  0.75 1.078125 0  0.78125 1.078125 0  0.8125 1.078125 0  0.84375 1.078125 0  0.875 1.078125 0  0.90625 1.078125 0  0.9375 1.078125 0  0.96875 1.078125 0  1 1.078125 0  0.03125 1.125 0  0 1.125 0  0.0625 1.125 0  0.09375 1.125 0  0.125 1.125 0  0.15625 1.125 0  0.1875 1.125 0  0.21875 1.125 0  0.25 1.125 0  0.28125 1.125 0  0.3125 1.125 0  0.34375 1.125 0  0.375 1.125 0  0.40625 1.125 0  0.4375 1.125 0  0.46875 1.125 0  0.5 1.125 0  0.53125 1.125 0  0.5625 1.125 0  0.59375 1.125 0  0.625 1.125 0  0.65625 1.125 0  0.6875 1.125 0  0.71875 1.125 0  0.75 1.125 0  0.78125 1.125 0  0.8125 1.125 0  0.84375 1.125 0  0.875 1.125 0  0.90625 1.125 0  0.9375 1.125 0  0.96875 1.125 0  1 1.125 0  0.03125 1.171875 0  0 1.171875 0  0.0625 1.171875 0  0.09375 1.171875 0  0.125 1.171875 0  0.15625 1.171875 0  0.1875 1.171875 0  0.21875 1.171875 0  0.25 1.171875 0  0.28125 1.171875 0  0.3125 1.171875 0  0.34375 1.171875 0  0.375 1.171875 0  0.40625 1.171875 0  0.4375 1.171875 0  0.46875 1.171875 0  0.5 1.171875 0  0.53125 1.171875 0  0.5625 1.171875 0  0.59375 1.171875 0  0.625 1.171875 0  0.65625 1.171875 0  0.6875 1.171875 0  0.71875 1.171875 0  0.75 1.171875 0  0.78125 1.171875 0  0.8125 1.171875 0  0.84375 1.171875 0  0.875 1.171875 0  0.90625 1.171875 0  0.9375 1.171875 0  0.96875 1.171875 0  1 1.171875 0  0.03125 1.21875 0  0 1.21875 0  0.0625 1.21875 0  0.09375 1.21875 0  0.125 1.21875 0  0.15625 1.21875 0  0.1875 1.21875 0  0.21875 1.21875 0  0.25 1.21875 0  0.28125 1.21875 0  0.3125 1.21875 0  0.34375 1.21875 0  0.375 1.21875 0  0.40625 1.21875 0  0.4375 1.21875 0  0.46875 1.21875 0  0.5 1.21875 0  0.53125 1.21875 0  0.5
[...]
<PointData  Vectors="u"> 
<DataArray  type="Float64"  Name="u"  NumberOfComponents="3" format="ascii">1.4116401559136864e-02 7.1452962104409038e-04 0.0000000000000000e+00  1.6277594986186736e-02 3.9893959349676360e-03 0.0000000000000000e+00  1.7909144571226630e-02 4.2714884632792625e-03 0.0000000000000000e+00  1.5337466910508475e-02 9.3240336392884902e-04 0.0000000000000000e+00  1.5726479120382861e-02 7.2650182735996063e-03 0.0000000000000000e+00  1.7523748935505769e-02 7.8605039633911269e-03 0.0000000000000000e+00  1.4635499884456728e-02 1.0194597410576774e-02 0.0000000000000000e+00  1.6218954788929433e-02 1.1032496161955292e-02 0.0000000000000000e+00  1.3206364632940715e-02 1.2658700765341740e-02 0.0000000000000000e+00  1.4558907149594133e-02 1.3676000144357226e-02 0.0000000000000000e+00  1.1547067547413950e-02 1.4591627255528462e-02 0.0000000000000000e+00  1.2696879609834776e-02 1.5729459219353190e-02 0.0000000000000000e+00  9.7472972715992121e-03 1.5949100474394264e-02 0.0000000000000000e+00  1.0721973764700878e-02 1.7154521255630367e-02 0.0000000000000000e+00  7.8853437004669756e-03 1.6707077144515848e-02 0.0000000000000000e+00  8.7091865120009840e-03 1.7933221812786629e-02 0.0000000000000000e+00  6.0301713324017866e-03 1.6861460700446151e-02 0.0000000000000000e+00  6.7244912399883755e-03 1.8067048060045894e-02 0.0000000000000000e+00  4.2423887767768483e-03 1.6426884662273603e-02 0.0000000000000000e+00  4.8257589696323530e-03 1.7575809785598331e-02 0.0000000000000000e+00  2.5748481961261802e-03 1.5435087385929698e-02 0.0000000000000000e+00  3.0635720723393720e-03 1.6496004334229326e-02 0.0000000000000000e+00  1.0731512458617388e-03 1.3932961946156161e-02 0.0000000000000000e+00  1.4814287057036233e-03 1.4879009881769389e-02 0.0000000000000000e+00  -2.2398420641129554e-04 1.1980578330877715e-02 0.0000000000000000e+00  1.1630103567111515e-04 1.2789082030017909e-02 0.0000000000000000e+00  -1.2843379662557366e-03 9.6491048810469406e-03 0.0000000000000000e+00  -1.0012058587503447e-03 1.0301405775133667e-02 0.0000000000000000e+00  -2.0819652254920884e-03 7.0188181246083866e-03 0.0000000000000000e+00  -1.8465193563860260e-03 7.5000874203062272e-03 0.0000000000000000e+00  -2.5969918247734768e-03 4.1770786216474573e-03 0.0000000000000000e+00  -2.4010616130487627e-03 4.4762574144505355e-03 0.0000000000000000e+00  -2.8154927678717841e-03 1.2163913056114826e-03 0.0000000000000000e+00  -2.6520357086513850e-03 1.3261332100271803e-03 0.0000000000000000e+00  -2.7294287224861073e-03 -1.7675684236815488e-03 0.0000000000000000e+00  -2.5925290590935947e-03 -1.8508340438702006e-03 0.0000000000000000e+00  -2.3367057430552962e-03 -4.6779018775725120e-03 0.0000000000000000e+00  -2.2215448030181270e-03 -4.9538845299802970e-03 0.0000000000000000e+00  -1.6412669310866207e-03 -7.4185152432583853e-03 0.0000000000000000e+00  -1.5442394625779349e-03 -7.8828710122390896e-03 0.0000000000000000e+00  -6.5326500070592077e-04 -9.8961900136245919e-03 0.0000000000000000e+00  -5.7210955990034127e-04 -1.0540305221464692e-02 0.0000000000000000e+00  6.1070613647978031e-04 -1.2022788675838938e-02 0.0000000000000000e+00  6.7657753558799316e-04 -1.2833475522584580e-02 0.0000000000000000e+00  2.1273105109781160e-03 -1.3717546855785037e-02 0.0000000000000000e+00  2.1764359444270639e-03 -1.4676734225318944e-02 0.0000000000000000e+00  3.8662201500781904e-03 -1.4909526699324471e-02 0.0000000000000000e+00  3.8944696210901865e-03 -1.5993887237970232e-02 0.0000000000000000e+00  5.7898220840697130e-03 -1.5540145515207779e-02 0.0000000000000000e+00  5.7897040191258551e-03 -1.6720743582265513e-02 0.0000000000000000e+00  7.8529926972239778e-03 -1.5565813299400964e-02 0.0000000000000000e+00  7.8126760082314808e-03 -1.6807710709763772e-02 0.0000000000000000e+00  1.0002713779754945e-02 -1.4960565652975134e-02 0.0000000000000000e+00  9.9050453046176830e-03 -1.6222437654365131e-02 0.0000000000000000e+00  1.2176840437648133e-02 -1.3718705699526634e-02 0.0000000000000000e+00  1.1998426912878677e-02 -1.4952357311724300e-02 0.0000000000000000e+00  1.4298488531926752e-02 -1.1857512449662370e-02 0.0000000000000000e+00  1.4010395120762636e-02 -1.3007184625472347e-02 0.0000000000000000e+00  1.6249774578506293e-02 -9.4210529224622482e-03 0.0000000000000000e+00  1.5825468677260441e-02 -1.0421946351016589e-02 0.0000000000000000e+00  1.7752578218168554e-02 -6.4917805564689846e-03 0.0000000000000000e+00  1.7208733937904185e-02 -7.2655745161733891e-03 0.0000000000000000e+00  1.7927576562790950e-02 -3.2623584000045442e-03 0.0000000000000000e+00  1.7459893449284204e-02 -3.6937567475180096e-03 0.0000000000000000e+00  1.5189945636289868e-02 -3.0009062197879413e-04 0.0000000000000000e+00  1.4590423206374350e-02 -4.1159118261123326e-04 0.0000000000000000e+00  1.9809735608520947e-02 5.0661777486129145e-03 0.0000000000000000e+00  1.7169906721494998e-02 1.3983233949525283e-03 0.0000000000000000e+00  1.9303855031482277e-02 9.3118699557045888e-03 0.0000000000000000e+00  1.7925723274943836e-02 1.3011101335311782e-02 0.0000000000000000e+00  1.6157623385734749e-02 1.6036969509681320e-02 0.0000000000000000e+00  1.4168985566559612e-02 1.8340961825193649e-02 0.0000000000000000e+00  1.2062183507964761e-02 1.9898676667405260e-02 0.0000000000000000e+00  9.9185030065550503e-03 2.0705425221662382e-02 0.0000000000000000e+00  7.8080841086808741e-03 2.0775307578180535e-02 0.0000000000000000e+00  5.7924363278964242e-03 2.0139910985197039e-02 0.0000000000000000e+00  3.9246074846004770e-03 1.8846797157454694e-02 0.0000000000000000e+00  2.2501755853762927e-03 1.6957642637786163e-02 0.0000000000000000e+00  8.0730738477052409e-04 1.4546431179029283e-02 0.0000000000000000e+00  -3.7234879862999660e-04 1.1697478242641285e-02 0.0000000000000000e+00  -1.2637323198040017e-03 8.5036644190359199e-03 0.0000000000000000e+00  -1.8477150828467212e-03 5.0645543419811671e-03 0.0000000000000000e+00  -2.1112145357179367e-03 1.4847352782765787e-03 0.0000000000000000e+00  -2.0468986059304869e-03 -2.1279726928615074e-03 0.0000000000000000e+00  -1.6535183268418636e-03 -5.6641616337201640e-03 0.0000000000000000e+00  -9.3588901588110565e-04 -9.0146659356177584e-03 0.0000000000000000e+00  9.4558449991382804e-05 -1.2072361107967283e-02 0.0000000000000000e+00  1.4194910471656912e-03 -1.4734199142106417e-02 0.0000000000000000e+00  3.0128871724880617e-03 -1.6903308954836035e-02 0.0000000000000000e+00  4.8406517360521269e-03 -1.8491348802257626e-02 0.0000000000000000e+00  6.8597423032737545e-03 -1.9420936849155988e-02 0.0000000000000000e+00  9.0177594924905190e-03 -1.9628255221318589e-02 0.0000000000000000e+00  1.1252072885452238e-02 -1.9065607465344442e-02 0.0000000000000000e+00  1.3488745173117468e-02 -1.7703934661433506e-02 0.0000000000000000e+00  1.5637769899312766e-02 -1.5535152779839842e-02 0.0000000000000000e+00  1.7572051617434605e-02 -1.2575105007026981e-02 0.0000000000000000e+00  1.9028166129012019e-02 -8.8733610111438460e-03 0.0000000000000000e+00  1.9188202533901848e-02 -4.5895409478234834e-03 0.0000000000000000e+00  1.5681247021029472e-02 -8.5876884994387417e-04 0.0000000000000000e+00  2.2684893184350553e-02 6.0281207235984230e-03 0.0000000000000000e+00  1.9756186515770012e-02 1.8639414559600868e-03 0.0000000000000000e+00  2.2100835595239419e-02 1.1038770101488762e-02 0.0000000000000000e+00  2.0603351783428814e-02 1.5355445730119080e-02 0.0000000000000000e+00  1.8691578284563172e-02 1.8829872767817349e-02 0.0000000000000000e+00  1.6542526724025387e-02 2.1425987752384058e-02 0.0000000000000000e+00  1.4266162603547397e-02 2.3135533587421736e-02 0.0000000000000000e+00  1.1951683937968149e-02 2.3970065748519218e-02 0.0000000000000000e+00  9.6763473734158521e-03 2.3959180630758019e-02 0.0000000000000000e+00  7.5064881318879055e-03 2.3149098556159577e-02 0.0000000000000000e+00  5.4994504541879064e-03 2.1600959309165467e-02 0.0000000000000000e+00  3.7032106408208410e-03 1.9389079470899660e-02 0.0000000000000000e+00  2.1581700609468899e-03 1.6599033406323502e-02 0.0000000000000000e+00  8.9682922685192508e-04 1.3325957781968767e-02 0.0000000000000000e+00  -5.4679544309006107e-05 9.6727361322122250e-03 0.0000000000000000e+00  -6.7697092510329989e-04 5.7485298762621094e-03 0.0000000000000000e+00  -9.5624262269720505e-04 1.6671348895886610e-03 0.0000000000000000e+00  -8.8487081646193111e-04 -2.4543237244882203e-03 0.0000000000000000e+00  -4.6082307849487278e-04 -6.4969606972131782e-03 0.0000000000000000e+00  3.1152017966250067e-04 -1.0341482617571505e-02 0.0000000000000000e+00  1.4214359603792514e-03 -1.3869886416875397e-02 0.0000000000000000e+00  2.8506816376316305e-03 -1.6967102095888059e-02 0.0000000000000000e+00  4.5731713025293393e-03 -1.9523014567103647e-02 0.0000000000000000e+00  6.5536176027485311e-03 -2.1434559992524502e-02 0.0000000000000000e+00  8.7470546740722969e-03 -2.2608150729115522e-02 0.0000000000000000e+00  1.1097458694628616e-02 -2.2962176320475796e-02 0.0000000000000000e+00  1.3537294926102103e-02 -2.2429653788045643e-02 0.0000000000000000e+00  1.5985488207646538e-02 -2.0960794280261052e-02 0.0000000000000000e+00  1.8342396142334256e-02 -1.8525606417223995e-02 0.0000000000000000e+00  2.0464052898056993e-02 -1.5117521972464942e-02 0.0000000000000000e+00  2.2041982016298770e-02 -1.0767020759717629e-02 0.0000000000000000e+00  2.2093538766808196e-02 -5.6509281725678111e-03 0.0000000000000000e+00  1.7841474970478756e-02 -1.3598293628494082e-03 0.0000000000000000e+00  2.6554407833348767e-02 7.0926765945134619e-03 0.0000000000000000e+00  2.3140645163294983e-02 2.3477420524823621e-03 0.0000000000000000e+00  2.5920204944691754e-02 1.2945534034106223e-02 0.0000000000000000e+00  2.4291374765646603e-02 1.7936852394684243e-02 0.0000000000000000e+00  2.2217000781370736e-02 2.1897910818892075e-02 0.0000000000000000e+00  1.9887245162361341e-02 2.4807000009039158e-02 0.0000000000000000e+00  1.7422362294978212e-02 2.6674160625850776e-02 0.0000000000000000e+00  1.4920901927702299e-02 2.7529640458544054e-02 0.0000000000000000e+00  1.2466628511061494e-02 2.7421125869754776e-02 0.0000000000000000e+00  1.0132016052273339e-02 2.6411902487036155e-02 0.0000000000000000e+00  7.9775590697954268e-03 2.4578911849842292e-02 0.0000000000000000e+00  6.0544309717963964e-03 2.2010859861104713e-02 0.0000000000000000e+00  4.4036922594974728e-03 1.8806373710505669e-02 0.0000000000000000e+00  3.0591850504409161e-03 1.5072271564974087e-02 0.0000000000000000e+00  2.0465511378508681e-03 1.0922115770466152e-02 0.0000000000000000e+00  1.3858517781709691e-03 6.4747739001043570e-03 0.0000000000000000e+00  1.0904282140643191e-03 1.8533846770192022e-03 0.0000000000000000e+00  1.1688261995608379e-03 -2.8158749717847880e-03 0.0000000000000000e+00  1.6232898823823243e-03 -7.4046242435539637e-03 0.0000000000000000e+00  2.4508673782838914e-03 -1.1783524710061331e-02 0.0000000000000000e+00  3.6415679068696450e-03 -1.5823281943641417e-02 0.0000000000000000e+00  5.1785742735958717e-03 -1.9396175818871066e-02 0.0000000000000000e+00  7.0360814333182229e-03 -2.2377574002375195e-02 0.0000000000000000e+00  9.1790108739146746e-03 -2.4647965008087833e-02 0.0000000000000000e+00  1.1560784636960548e-02 -2.6095157373377600e-02 0.0000000000000000e+00  1.4122820795441637e-02 -2.6616865303498830e-02 0.0000000000000000e+00  1.6792575618760006e-02 -2.6123465732089447e-02 0.0000000000000000e+00  1.9482169098241988e-02 -2.4540924817500743e-02 0.0000000000000000e+00  2.2081282129531692e-02 -2.1813997278135010e-02 0.0000000000000000e+00  2.4426786590093633e-02 -1.7911166791176422e-02 0.0000000000000000e+00  2.6155298376884958e-02 -1.2843079257896364e-02 0.0000000000000000e+00  2.6081731117710109e-02 -6.8066067860304870e-03 0.0000000000000000e+00  2.0887048660936616e-02 -1.8581570611262074e-03 0.0000000000000000e+00  3.1464578114419148e-02 8.2557506647080500e-03 0.0000000000000000e+00  2.7365435308008865e-02 2.8712404063877383e-03 0.0000000000000000e+00  3.0807988187126153e-02 1.5022669539604957e-02 0.0000000000000000e+00  2.9043920701674497e-02 2.0740693484474031e-02 0.0000000000000000e+00  2.6801026414589136e-02 2.5220867881997233e-02 0.0000000000000000e+00  2.4288821425060191e-02 2.8457716769440144e-02 0.0000000000000000e+00  2.1639551590536727e-02 3.0482442051719991e-02 0.0000000000000000e+00  1.8959816883866918e-02 3.1346994830328247e-02 0.0000000000000000e+00  1.6340676488118516e-02 3.1120270057744363e-02 0.0000000000000000e+00  1.3858157449775539e-02 2.9885424007328076e-02 0.0000000000000000e+00  1.1576294678450220e-02 2.7737691781841784e-02 0.0000000000000000e+00  9.5462175353488426e-03 2.4782098246330774e-02 0.0000000000000000e+00  7.8100236635303107e-03 2.1131689911747655e-02 0.0000000000000000e+00  6.3995609109781908e-03 1.6905809592582376e-02 0.0000000000000000e+00  5.3406076753724097e-03 1.2228900151006188e-02 0.0000000000000000e+00  4.6510166365755258e-03 7.2294776187476501e-03 0.0000000000000000e+00  4.3447283268893931e-03 2.0393887078222605e-03 0.0000000000000000e+00  4.4292169319442888e-03 -3.2066600079307429e-03 0.0000000000000000e+00  4.9085375901758545e-03 -8.3716747412946012e-03 0.0000000000000000e+00  5.7803255989776221e-03 -1.3316675349187013e-02 0.0000000000000000e+00  7.0375181226709034e-03 -1.7901471376611366e-02 0.0000000000000000e+00  8.6649942184361967e-03 -2.1985330652256451e-02 0.0000000000000000e+00  1.0639895318651876e-02 -2.5428322042542147e-02 0.0000000000000000e+00  1.2928337919476764e-02 -2.8092830310447615e-02 0.0000000000000000e+00  1.5484859483971358e-02 -2.9845724063827406e-02 0.0000000000000000e+00  1.8249482951817587e-02 -3.0560917452845716e-02 0.0000000000000000e+00  2.1146871186953204e-02 -3.0122417448893199e-02 0.0000000000000000e+00  2.4082968712604215e-02 -2.8427811877437578e-02 0.0000000000000000e+00  2.6937504172445878e-02 -2.5392366697760911e-02 0.0000000000000000e+00  2.9525885366197574e-02 -2.0955738574092508e-02 0.0000000000000000e+00  3.1419716155477152e-02 -1.5105822192486651e-02 0.0000000000000000e+00  3.1186029516103948e-02 -8.0601161027747531e-03 0.0000000000000000e+00  2.4808132940328815e-02 -2.3729759821685468e-03 0.0000000000000000e+00  3.7508511631520636e-02 9.5177019884865044e-03 0.0000000000000000e+00  3.2504238976890379e-02 3.4512676480132729e-03 0.0000000000000000e+00  3.6862296055062312e-02 1.7266470283722239e-02 0.0000000000000000e+00  3.4968535921067863e-02 2.3757717495805346e-02 0.0000000000000000e+00  3.2565010518234017e-02 2.8781668772919343e-02 0.0000000000000000e+00  2.9887506290383375e-02 3.2352307356949182e-02 0.0000000000000000e+00  2.7080044052918403e-02 3.4525765743066282e-02 0.0000000000000000e+00  2.4257482359677927e-02 3.5379803777792963e-02 0.0000000000000000e+00  2.1515092551109220e-02 3.5008309276817022e-02 0.0000000000000000e+00  1.8931792592297492e-02 3.3517874557545353e-02 0.0000000000000000e+00  1.6570685133371826e-02 3.1024762442639093e-02 0.0000000000000000e+00  1.4482284827152213e-02 2.7652537306809728e-02 0.0000000000000000e+00  1.2704595329998424e-02 2.3529874187953111e-02 0.0000000000000000e+00  1.1267704376584258e-02 1.8789270051184019e-02 0.0000000000000000e+00  1.0192519192107032e-02 1.3565828239798364e-02 0.0000000000000000e+00  9.4960958594298549e-03 7.9969898099008091e-03 0.0000000000000000e+00  9.1888276420724647e-03 2.2221631531964196e-03 0.0000000000000000e+00  9.2796242203782766e-03 -3.6169192050150441e-03 0.0000000000000000e+00  9.7716491744912672e-03 -9.3760287308952018e-03 0.0000000000000000e+00  1.0666431826435938e-02 -1.4908040882492143e-02 0.0000000000000000e+00  1.1958980306831114e-02 -2.0062715056926375e-02 0.0000000000000000e+00  1.3639746822875142e-02 -2.4686865793407287e-02 0.0000000000000000e+00  1.5689769848327508e-02 -2.8624789259319338e-02 0.0000000000000000e+00  1.8080571797257080e-02 -3.1719532838965614e-02 0.0000000000000000e+00  2.0769935374907969e-02 -3.3814632583034424e-02 0.0000000000000000e+00  2.3700476537725706e-02 -3.4756800383981185e-02 0.0000000000000000e+00  2.6796366425071980e-02 -3.4399272717578318e-02 0.0000000000000000e+00  2.9960252064155764e-02 -3.2606036917568103e-02 0.0000000000000000e+00  3.3062791221260851e-02 -2.9257149034285949e-02 0.0000000000000000e+00  3.5896654088274943e-02 -2.4257541064368181e-02 0.0000000000000000e+00  3.7956711645588462e-02 -1.7567090325135110e-02 0.0000000000000000e+00  3.7509729051307117e-02 -9.4232439313042902e-03 0.0000000000000000e+00  2.9663594409128899e-02 -2.9289519727213982e-03 0.0000000000000000e+00  4.4816238369473793e-02 1.0874324475115615e-02 0.0000000000000000e+00  3.8657548043111792e-02 4.1014099534025508e-03 0.0000000000000000e+00  4.4222255846897845e-02 1.9664320315675075e-02 0.0000000000000000e+00  4.2214764380780062e-02 2.6963504277390804e-02 0.0000000000000000e+00  3.9674079919986505e-02 3.2541518958935867e-02 0.0000000000000000e+00  3.6868346402885825e-02 3.6436687455377419e-02 0.0000000000000000e+00  3.3954091042213010e-02 3.8735593605381168e-02 0.0000000000000000e+00  3.1052330252210072e-02 3.9547285053198704e-02 0.0000000000000000e+00  2.8260388036950825e-02 3.8995704122843873e-02 0.0000000000000000e+00  2.5655571822066486e-02 3.7215114365538302e-02 0.0000000000000000e+00  2.3297306508073077e-02 3.4346190787567267e-02 0.0000000000000000e+00  2.1229603032678967e-02 3.0533149361621971e-02 0.0000000000000000e+00  1.9484510546438613e-02 2.5921546433874454e-02 0.0000000000000000e+00  1.8083898869482619e-02 2.0656912066709356e-02 0.0000000000000000e+00  1.7043930318079194e-02 1.4884337095127905e-02 0.0000000000000000e+00  1.6374670312718879e-02 8.7483357532788016e-03 0.0000000000000000e+00  1.6085450176685556e-02 2.3938813307786445e-03 0.0000000000000000e+00  1.6181646397728296e-02 -4.0329598042858619e-03 0.0000000000000000e+00  1.6669877939189018e-02 -1.0383238656879609e-02 0.0000000000000000e+00  1.7552691604910801e-02 -1.6504189309428569e-02 0.0000000000000000e+00  1.8832421067982719e-02 -2.2237639567909352e-02 0.0000000000000000e+00  2.0504946631222470e-02 -2.7419264097993428e-02 0.0000000000000000e+00  2.2560816922522518e-02 -3.1878185106924195e-02 0.0000000000000000e+00  2.4979486886389592e-02 -3.5437262779442376e-02 0.0000000000000000e+00  2.7727702719910340e-02 -3.7914661398114287e-02 0.0000000000000000e+00  3.0754735902394807e-02 -3.9126160997900672e-02 0.0000000000000000e+00  3.3989354714641123e-02 -3.8889083288923688e-02 0.0000000000000000e+00  3.7334591902547447e-02 -3.7027205632212422e-02 0.0000000000000000e+00  4.0654764907792219e-02 -3.3377682610052625e-02 0.0000000000000000e+00  4.3718829766914102e-02 -2.7802340424003792e-02 0.0000000000000000e+00  4.5932246391937520e-02 -2.0224970176707904e-02 0.0000000000000000e+00  4.5200846833044130e-02 -1.0900615576342490e-02 0.0000000000000000e+00  3.5551873621937041e-02 -3.5458897243122963e-03 0.0000000000000000e+00  5.3548276854848184e-02 1.2315022436195451e-02 0.0000000000000000e+00  4.5947407309731680e-02 4.8334414857431080e-03 0.0000000000000000e+00  5.3059467954634489e-02 2.2190256992168193e-02 0.0000000000000000e+00  5.0966340475671335e-02 3.0312399511737701e-02 0.0000000000000000e+00  4.8329606865981478e-02 3.6432151867500290e-02 0.0000000000000000e+00  4.5456504253913080e-02 4.0619382258235012e-02 0.0000000000000000e+00  4.2516021714450875e-02 4.2999125020489769e-02 0.0000000000000000e+00  3.9632630197713396e-02 4.3719134582583981e-02 0.0000000000000000e+00  3.6901450957895036e-02 4.2940143146908347e-02 0.0000000000000000e+00  3.4393174180279588e-02 4.0829296337400324e-02 0.0000000000000000e+00  3.2157461680984573e-02 3.7555600725069201e-02 0.0000000000000000e+00  3.0226757889067209e-02 3.3286095627505570e-02 0.0000000000000000e+00  2.8620474676560925e-02 2.8183923085479252e-02 0.0000000000000000e+00  2.7349004334842376e-02 2.2407022788042325e-02 0.0000000000000000e+00  2.6417131032276310e-02 1.6108407238722158e-02 0.0000000000000000e+00  2.5827597454284718e-02 9.4370766442106180e-03 0.0000000000000000e+00  2.5582619287481876e-02 2.5396394615005580e-03 0.0000000000000000e+00  2.5686972450986802e-02 -4.4371231351490580e-03 0.0000000000000000e+00  