<?xml version="1.0"?>
<VTKFile type="UnstructuredGrid"  version="0.1"  >
<UnstructuredGrid>
<Piece  NumberOfPoints="825" NumberOfCells="1536">
<Points>
<DataArray  type="Float64"  NumberOfComponents="3"  format="ascii">-1.044949731047109e-21 0.5 0  0.06249999998990396 0.5000000002266425 0  0.06249999883765023 0.5625000011831961 0  -2.541578598151431e-09 0.5625000000909669 0  0.1249999998816071 0.5000000002143283 0  0.1249999992717169 0.5625000011098814 0  0.187499999554858 0.4999999999277732 0  0.1874999991545435 0.562500000599603 0  0.2499999990131206 0.4999999994425989 0  0.24999999869659 0.5624999999072141 0  0.3124999982516243 0.4999999987951895 0  0.3124999979561069 0.5624999989667088 0  0.3749999967527659 0.4999999974066884 0  0.3749999968674609 0.5624999977814543 0  0.4374999951899435 0.4999999961948968 0  0.4374999956775705 0.5624999967119916 0  0.4999999937440464 0.499999995159056 0  0.4999999945803305 0.5624999956764631 0  0.5624999922823751 0.4999999937167392 0  0.5624999936640229 0.5624999948176805 0  0.6249999921564444 0.4999999937649178 0  0.6249999932534901 0.5624999947194634 0  0.687499992833993 0.4999999945579748 0  0.6874999933432155 0.5624999948315805 0  0.7499999927318867 0.4999999937736936 0  0.7499999935040672 0.5624999946947086 0  0.8124999933855986 0.4999999942102542 0  0.812499993916217 0.5624999949269208 0  0.8749999944710328 0.4999999948683013 0  0.8749999945239586 0.5624999950514296 0  0.9374999945777924 0.4999999939047228 0  0.9374999950111486 0.5624999948647365 0  0.9999999954390623 0.4999999943333868 0  0.9999999956202311 0.5624999950447506 0  1.062499996536636 0.4999999948681951 0  1.062499996295049 0.5624999950859887 0  1.124999996536448 0.4999999938474344 0  1.124999996760401 0.5624999948204111 0  1.187499997204055 0.4999999941206392 0  1.187499997261896 0.5624999949235707 0  1.249999998155841 0.4999999946831079 0  1.249999997775554 0.5624999949597886 0  1.31249999797566 0.4999999937654545 0  1.312499998033229 0.5624999947466736 0  1.374999998340321 0.4999999940781066 0  1.374999998263071 0.562499994907283 0  1.437499998822892 0.4999999945808967 0  1.437499998442821 0.5624999950761006 0  1.49999999846585 0.4999999941810369 0  1.499999998356998 0.5624999952726644 0  1.562499998552046 0.4999999952717125 0  1.562499998270307 0.5624999960362047 0  1.624999998915004 0.4999999967570609 0  1.624999998254761 0.5624999969382074 0  1.687499999003307 0.4999999974779141 0  1.687499998163933 0.5624999977855842 0  1.749999999370538 0.4999999985252405 0  1.749999998114093 0.5624999987791044 0  1.812499999817039 0.4999999993426616 0  1.812499998076766 0.562499999708332 0  1.875000000023421 0.4999999996703647 0  1.874999997929936 0.5625000006846926 0  1.937500000130794 0.49999999995366 0  1.937499997953147 0.5625000020224556 0  2 0.5 0  2.000000000301192 0.5625000033663301 0  0.06249999798123604 0.6250000013075837 0  -2.962402672497971e-09 0.6250000005699411 0  0.1249999985057859 0.6250000013130166 0  0.1874999985819875 0.6250000008588023 0  0.249999998301246 0.625000000148763 0  0.312499997743066 0.6249999992492676 0  0.3749999969531131 0.6249999982440052 0  0.4374999960552286 0.6249999972682627 0  0.4999999951931613 0.6249999963869337 0  0.5624999944606984 0.6249999957255548 0  0.6249999939966052 0.624999995421408 0  0.6874999938660855 0.6249999953319094 0  0.7499999939511864 0.624999995308079 0  0.8124999942131186 0.6249999953734432 0  0.8749999946308069 0.624999995430395 0  0.9374999950920184 0.6249999954352499 0  0.9999999955906074 0.6249999954753679 0  1.062499996126487 0.6249999954800568 0  1.124999996607931 0.6249999954244523 0  1.187499997040541 0.624999995415082 0  1.249999997437561 0.6249999954071588 0  1.312499997721348 0.6249999953868136 0  1.374999997899301 0.6249999954614692 0  1.437499997982296 0.6249999956272729 0  1.499999997922625 0.6249999959336864 0  1.562499997778171 0.6249999964840207 0  1.624999997610732 0.6249999972106388 0  1.68749999740855 0.62499999805188 0  1.749999997201005 0.6249999990188851 0  1.812499997018561 0.6250000000934903 0  1.874999996926844 0.625000001323022 0  1.937499997265939 0.625000002659161 0  1.999999998460948 0.6250000031666872 0  0.06249999750877904 0.6875000010845678 0  -3.012939225841054e-09 0.6875000006014664 0  0.1249999979054987 0.6875000011217304 0  0.1874999980330392 0.687500000773138 0  0.2499999978826821 0.6875000001630881 0  0.3124999974945634 0.6874999993873475 0  0.3749999969244356 0.6874999985349073 0  0.4374999962565426 0.687499997697671 0  0.4999999955863235 0.6874999969543769 0  0.5624999950000453 0.687499996384533 0  0.6249999945845802 0.6874999960351798 0  0.6874999943873343 0.6874999958636929 0  0.7499999943858101 0.6874999958004893 0  0.81249999454767 0.6874999958030603 0  0.8749999948383226 0.6874999958264786 0  0.9374999952052419 0.6874999958454296 0  0.9999999956175597 0.6874999958624359 0  1.062499996051078 0.6874999958640771 0  1.124999996465279 0.6874999958476083 0  1.187499996839622 0.6874999958357719 0  1.249999997160244 0.6874999958345319 0  1.312499997396934 0.6874999958564013 0  1.374999997535939 0.6874999959386534 0  1.437499997571904 0.6874999961123974 0  1.499999997498541 0.687499996415938 0  1.562499997340073 0.6874999968855001 0  1.624999997131341 0.6874999975160434 0  1.687499996896509 0.6874999982883251 0  1.749999996671933 0.6874999991911612 0  1.812499996513461 0.6875000002043096 0  1.874999996519079 0.6875000012721152 0  1.937499996828688 0.6875000021838334 0  1.999999997326474 0.6875000025217414 0  0.06249999723747424 0.750000000724596 0  -3.025604712526221e-09 0.7500000004052239 0  0.124999997484788 0.7500000007640596 0  0.1874999975905562 0.7500000005105485 0  0.2499999975084247 0.750000000028345 0  0.3124999972453852 0.7499999993968883 0  0.3749999968385025 0.7499999986952604 0  0.4374999963456297 0.7499999979989522 0  0.4999999958346413 0.7499999973749345 0  0.5624999953734585 0.7499999968774382 0  0.6249999950233546 0.74999999653261 0  0.6874999948220646 0.7499999963262386 0  0.7499999947738344 0.7499999962219547 0  0.8124999948630203 0.7499999961828639 0  0.8749999950633468 0.7499999961767131 0  0.9374999953417383 0.7499999961820383 0  0.9999999956683099 0.7499999961883786 0  1.062499996015536 0.7499999961889133 0  1.124999996354817 0.7499999961838308 0  1.187499996662867 0.7499999961818778 0  1.249999996920027 0.7499999961937935 0  1.312499997106388 0.7499999962355287 0  1.374999997207976 0.7499999963312792 0  1.437499997218184 0.7499999965083777 0  1.499999997138891 0.7499999967948799 0  1.562499996986448 0.7499999972120115 0  1.624999996787444 0.7499999977642083 0  1.687499996573332 0.7499999984418062 0  1.749999996384474 0.7499999992234978 0  1.812499996272984 0.7500000000655476 0  1.874999996296399 0.7500000008771792 0  1.937499996469154 0.7500000014976734 0  1.99999999664896 0.7500000017908497 0  0.06249999705256862 0.8125000003368469 0  -3.067809425814939e-09 0.812500000121802 0  0.1249999971883648 0.8125000003695451 0  0.18749999725359 0.8125000001878653 0  0.2499999972003737 0.812499999821091 0  0.3124999970193277 0.8124999993249097 0  0.3749999967293672 0.8124999987623128 0  0.4374999963682979 0.8124999981945946 0  0.4999999959841657 0.8124999976754738 0  0.5624999956273836 0.8124999972453568 0  0.624999995343027 0.812499996924238 0  0.6874999951617794 0.812499996708814 0  0.7499999950949146 0.8124999965796239 0  0.8124999951372853 0.8124999965115252 0  0.8749999952725304 0.8124999964807754 0  0.937499995477885 0.8124999964693167 0  0.9999999957288526 0.8124999964656886 0  1.062499996000946 0.8124999964639337 0  1.124999996270265 0.8124999964638732 0  1.187499996515256 0.8124999964709316 0  1.249999996717035 0.8124999964948322 0  1.312499996859431 0.8124999965497868 0  1.374999996931016 0.8124999966544035 0  1.437499996927016 0.812499996829568 0  1.499999996851119 0.8124999970951564 0  1.562499996717071 0.8124999974649544 0  1.624999996547492 0.8124999979416434 0  1.687499996371682 0.8124999985143798 0  1.749999996224282 0.8124999991559405 0  1.812499996141031 0.8124999998162427 0  1.874999996144827 0.8125000004162353 0  1.937499996216052 0.8125000008620058 0  1.999999996269661 0.812500001113042 0  0.06249999690212766 0.8749999999746122 0  -3.145983166365487e-09 0.8749999998244558 0  0.1249999969675876 0.8750000000001308 0  0.1874999969976405 0.8749999998698369 0  0.2499999969549814 0.8749999995953398 0  0.3124999968257816 0.8749999992130492 0  0.3749999966176153 0.8749999987697576 0  0.4374999963539542 0.8749999983131828 0  0.4999999960678502 0.8749999978855323 0  0.5624999957956163 0.8749999975184439 0  0.6249999955705606 0.8749999972290895 0  0.6874999954171593 0.8749999970193724 0  0.7499999953476368 0.8749999968794407 0  0.8124999953621889 0.8749999967934164 0  0.8749999954514721 0.8749999967445721 0  0.93749999559984 0.8749999967188113 0  0.999999995788375 0.8749999967062455 0  1.062499995996924 0.8749999967015688 0  1.124999996205475 0.8749999967041882 0  1.187499996395388 0.8749999967180164 0  1.249999996550264 0.8749999967509738 0  1.312499996656804 0.8749999968145541 0  1.374999996706127 0.8749999969230039 0  1.437499996695245 0.8749999970915608 0  1.49999999662831 0.8749999973336906 0  1.56249999651719 0.8749999976574773 0  1.624999996380695 0.8749999980619773 0  1.687499996242628 0.8749999985342508 0  1.749999996128639 0.874999999046707 0  1.812499996060285 0.874999999555271 0  1.874999996044829 0.8750000000026839 0  1.937499996064191 0.8750000003357575 0  1.999999996079134 0.8750000005399542 0  0.06249999676456703 0.9374999996601446 0  -3.251586967297276e-09 0.9374999995491659 0  0.1249999967910164 0.9374999996808417 0  0.1874999967978775 0.9374999995870471 0  0.2499999967597276 0.9374999993825547 0  0.3124999966640868 0.9374999990906268 0  0.3749999965129236 0.9374999987446839 0  0.4374999963203287 0.9374999983806375 0  0.4999999961084792 0.9374999980311278 0  0.5624999959029952 0.9374999977213127 0  0.6249999957282533 0.9374999974662478 0  0.687499995603287 0.93749999727
[...]
<PointData  Vectors="u"> 
<DataArray  type="Float64"  Name="u"  NumberOfComponents="3" format="ascii">2.5300061096821093e-25 -8.1521352964850779e-25 0.0000000000000000e+00  -6.1383179822903898e-10 6.7979373299342914e-09 0.0000000000000000e+00  1.2743240967866907e-06 2.0240555559805205e-07 0.0000000000000000e+00  0.0000000000000000e+00 0.0000000000000000e+00 0.0000000000000000e+00  -2.3550570466282814e-09 1.1489644362632008e-08 0.0000000000000000e+00  1.4001153992176254e-06 2.9236199132033693e-07 0.0000000000000000e+00  -4.6894711708309211e-09 1.5660003452995920e-08 0.0000000000000000e+00  1.2168997882502777e-06 2.9364689014981036e-07 0.0000000000000000e+00  -8.1154456871503845e-09 1.7304123981663143e-08 0.0000000000000000e+00  1.0026529004390805e-06 2.6178169518501096e-07 0.0000000000000000e+00  -1.2374401325414541e-08 1.7366049374929606e-08 0.0000000000000000e+00  8.0588646485136257e-07 2.2068391874552601e-07 0.0000000000000000e+00  -1.6270819838997320e-08 1.8036374152037309e-08 0.0000000000000000e+00  6.3748949080526790e-07 1.8007653006174557e-07 0.0000000000000000e+00  -2.1227991455890093e-08 1.6355798563867609e-08 0.0000000000000000e+00  4.9877625276303283e-07 1.4331272604659575e-07 0.0000000000000000e+00  -2.6868294318261113e-08 1.3333338585611618e-08 0.0000000000000000e+00  3.8771484714316077e-07 1.1170020823693621e-07 0.0000000000000000e+00  -3.0912476304623765e-08 1.2250286647861536e-08 0.0000000000000000e+00  3.0102354500543893e-07 8.5657040416091327e-08 0.0000000000000000e+00  -3.4888219730919998e-08 1.0314091489025927e-08 0.0000000000000000e+00  2.3470245718229660e-07 6.4572009873691798e-08 0.0000000000000000e+00  -3.8766021045291726e-08 7.9836794059729679e-09 0.0000000000000000e+00  1.8514557237632490e-07 4.7844756799812658e-08 0.0000000000000000e+00  -4.0896576561221144e-08 7.7367105089331540e-09 0.0000000000000000e+00  1.4921575497961233e-07 3.4835232158690169e-08 0.0000000000000000e+00  -4.3517704099321506e-08 5.8706587598029221e-09 0.0000000000000000e+00  1.2398950107660204e-07 2.4378661957500513e-08 0.0000000000000000e+00  -4.6165315114542434e-08 3.4052050438244513e-09 0.0000000000000000e+00  1.0735578043266187e-07 1.5868849780366769e-08 0.0000000000000000e+00  -4.7001415909126592e-08 3.1457028223747091e-09 0.0000000000000000e+00  9.7953266238565059e-08 8.8408794330027735e-09 0.0000000000000000e+00  -4.8427756307717756e-08 1.1058850594380074e-09 0.0000000000000000e+00  9.4643378789188237e-08 2.2495799854299787e-09 0.0000000000000000e+00  -4.9861421818477538e-08 -1.5217677919001897e-09 0.0000000000000000e+00  9.7193230219164643e-08 -4.4211192094493799e-09 0.0000000000000000e+00  -4.9478163180115042e-08 -1.9798335690370991e-09 0.0000000000000000e+00  1.0609888746441006e-07 -1.1599898873731816e-08 0.0000000000000000e+00  -4.9632425878819166e-08 -4.2083733894137403e-09 0.0000000000000000e+00  1.2206956548535098e-07 -2.0345475462243710e-08 0.0000000000000000e+00  -4.9743090065897528e-08 -7.0332025624489086e-09 0.0000000000000000e+00  1.4671001338061165e-07 -3.1246416214842298e-08 0.0000000000000000e+00  -4.7996178063577332e-08 -7.7237013352198096e-09 0.0000000000000000e+00  1.8235606845980700e-07 -4.4862932488804636e-08 0.0000000000000000e+00  -4.6757945049091859e-08 -1.0252472464940773e-08 0.0000000000000000e+00  2.3155999225963909e-07 -6.2422700196807509e-08 0.0000000000000000e+00  -4.5440318174359890e-08 -1.3487878235988498e-08 0.0000000000000000e+00  2.9774024496299462e-07 -8.4666102956342163e-08 0.0000000000000000e+00  -4.2217267057056598e-08 -1.4724145440238236e-08 0.0000000000000000e+00  3.8493183689146441e-07 -1.1213943792616366e-07 0.0000000000000000e+00  -3.9442262683672003e-08 -1.7331439417589303e-08 0.0000000000000000e+00  4.9717676750455464e-07 -1.4568255657841709e-07 0.0000000000000000e+00  -3.6510352604449541e-08 -1.9566728615876784e-08 0.0000000000000000e+00  6.3897087707321791e-07 -1.8500584573803590e-07 0.0000000000000000e+00  -3.1572501640598032e-08 -1.8686826645449778e-08 0.0000000000000000e+00  8.1453321123097093e-07 -2.2829164465619557e-07 0.0000000000000000e+00  -2.6949903709150445e-08 -1.8471601221654795e-08 0.0000000000000000e+00  1.0255678283911316e-06 -2.7081164958272111e-07 0.0000000000000000e+00  -2.2021435405663169e-08 -1.7603437018239193e-08 0.0000000000000000e+00  1.2644243007033306e-06 -2.9931189007802298e-07 0.0000000000000000e+00  -1.4874606957084796e-08 -1.3327387749265053e-08 0.0000000000000000e+00  1.4772651023272184e-06 -2.8331737638461514e-07 0.0000000000000000e+00  -7.4631957026428502e-09 -8.4262153587203337e-09 0.0000000000000000e+00  1.3920369308940646e-06 -1.6590337062078816e-07 0.0000000000000000e+00  -6.4305139257931985e-25 3.9705432081119507e-25 0.0000000000000000e+00  0.0000000000000000e+00 0.0000000000000000e+00 0.0000000000000000e+00  1.9209832765245626e-06 3.2723368675430330e-07 0.0000000000000000e+00  0.0000000000000000e+00 0.0000000000000000e+00 0.0000000000000000e+00  2.1276059498731834e-06 5.0959101813233554e-07 0.0000000000000000e+00  1.9900175532633371e-06 5.4051714857184910e-07 0.0000000000000000e+00  1.7748497588013387e-06 4.9999148594674546e-07 0.0000000000000000e+00  1.5558830988871797e-06 4.3195390621258508e-07 0.0000000000000000e+00  1.3571226310846920e-06 3.5802763569348513e-07 0.0000000000000000e+00  1.1865741802809186e-06 2.8811981568995755e-07 0.0000000000000000e+00  1.0457714577768225e-06 2.2637779512808916e-07 0.0000000000000000e+00  9.3309950367462406e-07 1.7415037681781745e-07 0.0000000000000000e+00  8.4534551278548765e-07 1.3124969571270746e-07 0.0000000000000000e+00  7.7882312402156439e-07 9.6759916943825600e-08 0.0000000000000000e+00  7.2996915911427495e-07 6.9438594115527644e-08 0.0000000000000000e+00  6.9551011510843526e-07 4.7782359761275278e-08 0.0000000000000000e+00  6.7273761327091851e-07 3.0316483839690181e-08 0.0000000000000000e+00  6.5970814908968780e-07 1.5664165295613473e-08 0.0000000000000000e+00  6.5518242875034254e-07 2.3496198039807632e-09 0.0000000000000000e+00  6.5871487046981951e-07 -1.1045330434843455e-08 0.0000000000000000e+00  6.7071265020765037e-07 -2.5869766181642914e-08 0.0000000000000000e+00  6.9229860438817333e-07 -4.3605619480506771e-08 0.0000000000000000e+00  7.2535249213476020e-07 -6.5713445035874506e-08 0.0000000000000000e+00  7.7250857420312685e-07 -9.3598892216534889e-08 0.0000000000000000e+00  8.3693826100089486e-07 -1.2875594000718523e-07 0.0000000000000000e+00  9.2224785411547038e-07 -1.7248686126131334e-07 0.0000000000000000e+00  1.0322736145813975e-06 -2.2563604633042046e-07 0.0000000000000000e+00  1.1705901289652115e-06 -2.8832928762539020e-07 0.0000000000000000e+00  1.3400233437270560e-06 -3.5896579812440235e-07 0.0000000000000000e+00  1.5417930042057973e-06 -4.3255241048012300e-07 0.0000000000000000e+00  1.7731289274335252e-06 -4.9771146205621989e-07 0.0000000000000000e+00  2.0180069022155282e-06 -5.3071982196904875e-07 0.0000000000000000e+00  2.2007792188106037e-06 -4.8652156207743087e-07 0.0000000000000000e+00  1.9669402449009898e-06 -2.9650938929771366e-07 0.0000000000000000e+00  0.0000000000000000e+00 0.0000000000000000e+00 0.0000000000000000e+00  2.3029787505614274e-06 3.8950500932875800e-07 0.0000000000000000e+00  0.0000000000000000e+00 0.0000000000000000e+00 0.0000000000000000e+00  2.6405839541487688e-06 6.4299647888666483e-07 0.0000000000000000e+00  2.5631951402399454e-06 7.1914362095473972e-07 0.0000000000000000e+00  2.4016223430344110e-06 6.9320145630051234e-07 0.0000000000000000e+00  2.2258140670215763e-06 6.1815985972757064e-07 0.0000000000000000e+00  2.0578053064798073e-06 5.2494731522781052e-07 0.0000000000000000e+00  1.9077810112510572e-06 4.3041076409103441e-07 0.0000000000000000e+00  1.7801086863433334e-06 3.4309009806518842e-07 0.0000000000000000e+00  1.6755799966416363e-06 2.6677882646493526e-07 0.0000000000000000e+00  1.5928194618039492e-06 2.0255670341102124e-07 0.0000000000000000e+00  1.5293785566818017e-06 1.4995478471858454e-07 0.0000000000000000e+00  1.4824241829406363e-06 1.0764737929935391e-07 0.0000000000000000e+00  1.4491422610887065e-06 7.3821649086760428e-08 0.0000000000000000e+00  1.4270695647821197e-06 4.6431657846132017e-08 0.0000000000000000e+00  1.4143322652683237e-06 2.3351881576831500e-08 0.0000000000000000e+00  1.4097470401676306e-06 2.4112050553388115e-09 0.0000000000000000e+00  1.4128748245314452e-06 -1.8582982294451657e-08 0.0000000000000000e+00  1.4240569107705173e-06 -4.1805412571092908e-08 0.0000000000000000e+00  1.4443792045380976e-06 -6.9418520602716379e-08 0.0000000000000000e+00  1.4756034921994926e-06 -1.0354407308487195e-07 0.0000000000000000e+00  1.5200886409931888e-06 -1.4617202309876981e-07 0.0000000000000000e+00  1.5805863489721571e-06 -1.9904917742685649e-07 0.0000000000000000e+00  1.6599688240559264e-06 -2.6343608387182265e-07 0.0000000000000000e+00  1.7608969083341485e-06 -3.3965445009201461e-07 0.0000000000000000e+00  1.8853355930661497e-06 -4.2637957364491370e-07 0.0000000000000000e+00  2.0339752029448080e-06 -5.1940363413655590e-07 0.0000000000000000e+00  2.2055637351053319e-06 -6.0954341628308296e-07 0.0000000000000000e+00  2.3952026101986012e-06 -6.7932980547883240e-07 0.0000000000000000e+00  2.5856130846198251e-06 -6.9813515219590535e-07 0.0000000000000000e+00  2.6977673164308177e-06 -6.1692860541856268e-07 0.0000000000000000e+00  2.3434459145886805e-06 -3.7284203674074362e-07 0.0000000000000000e+00  0.0000000000000000e+00 0.0000000000000000e+00 0.0000000000000000e+00  2.6236113712656461e-06 4.1686047724381899e-07 0.0000000000000000e+00  0.0000000000000000e+00 0.0000000000000000e+00 0.0000000000000000e+00  3.0605067122901384e-06 7.0811144306158845e-07 0.0000000000000000e+00  3.0448093003345165e-06 8.2224320579058018e-07 0.0000000000000000e+00  2.9480080286935877e-06 8.1894725911065884e-07 0.0000000000000000e+00  2.8360574057472789e-06 7.5002677750634259e-07 0.0000000000000000e+00  2.7254081321964740e-06 6.5052069551015340e-07 0.0000000000000000e+00  2.6236369292817945e-06 5.4216707039378843e-07 0.0000000000000000e+00  2.5350692711483859e-06 4.3754690418740269e-07 0.0000000000000000e+00  2.4615463793706564e-06 3.4327530139543578e-07 0.0000000000000000e+00  2.4030132384009245e-06 2.6218132442900717e-07 0.0000000000000000e+00  2.3582381419390901e-06 1.9472368181385533e-07 0.0000000000000000e+00  2.3253577108397581e-06 1.3990044568051826e-07 0.0000000000000000e+00  2.3022956739840772e-06 9.5825313982756249e-08 0.0000000000000000e+00  2.2871223460700590e-06 6.0097896824817741e-08 0.0000000000000000e+00  2.2783084266090939e-06 3.0041620239285236e-08 0.0000000000000000e+00  2.2748675234758416e-06 2.8391703322409405e-09 0.0000000000000000e+00  2.2764295919867157e-06 -2.4387561333310339e-08 0.0000000000000000e+00  2.2832728255733894e-06 -5.4508582308304615e-08 0.0000000000000000e+00  2.2962922587872223e-06 -9.0321209334728610e-08 0.0000000000000000e+00  2.3169315393720812e-06 -1.3446498556971005e-07 0.0000000000000000e+00  2.3470452356264453e-06 -1.8927573442312752e-07 0.0000000000000000e+00  2.3886934346765818e-06 -2.5655038150611442e-07 0.0000000000000000e+00  2.4438485018289127e-06 -3.3717163460106257e-07 0.0000000000000000e+00  2.5140663885183332e-06 -4.3050838801222627e-07 0.0000000000000000e+00  2.6001331360534938e-06 -5.3349373916552718e-07 0.0000000000000000e+00  2.7017505975122626e-06 -6.3923119761102981e-07 0.0000000000000000e+00  2.8174139635015899e-06 -7.3495237604207116e-07 0.0000000000000000e+00  2.9436313532481872e-06 -7.9925119400470982e-07 0.0000000000000000e+00  3.0668993736389161e-06 -7.9889266056440552e-07 0.0000000000000000e+00  3.1107514421051420e-06 -6.8682890720794995e-07 0.0000000000000000e+00  2.6586711390911590e-06 -4.0941222146516315e-07 0.0000000000000000e+00  0.0000000000000000e+00 0.0000000000000000e+00 0.0000000000000000e+00  2.9115624786651380e-06 4.1706598258800889e-07 0.0000000000000000e+00  0.0000000000000000e+00 0.0000000000000000e+00 0.0000000000000000e+00  3.4322807474302668e-06 7.1988196037889878e-07 0.0000000000000000e+00  3.4736192464318786e-06 8.5549686813743403e-07 0.0000000000000000e+00  3.4411101449021057e-06 8.7107788519157846e-07 0.0000000000000000e+00  3.3991134265560644e-06 8.1279760441682551e-07 0.0000000000000000e+00  3.3571338985751620e-06 7.1541977447068055e-07 0.0000000000000000e+00  3.3181425895488920e-06 6.0274974871287945e-07 0.0000000000000000e+00  3.2843350996676847e-06 4.8994044503907070e-07 0.0000000000000000e+00  3.2570414230896440e-06 3.8584146397703475e-07 0.0000000000000000e+00  3.2365456452222438e-06 2.9490712475636938e-07 0.0000000000000000e+00  3.2223003890908007e-06 2.1861235687030443e-07 0.0000000000000000e+00  3.2131916790124539e-06 1.5645910695228857e-07 0.0000000000000000e+00  3.2078272172597706e-06 1.0667202655893579e-07 0.0000000000000000e+00  3.2048398745063176e-06 6.6677169219388495e-08 0.0000000000000000e+00  3.2031109756906677e-06 3.3424568275306610e-08 0.0000000000000000e+00  3.2019037639357020e-06 3.6025141286894831e-09 0.0000000000000000e+00  3.2009404581834865e-06 -2.6214066174468829e-08 0.0000000000000000e+00  3.2004271327781671e-06 -5.9442353714875334e-08 0.0000000000000000e+00  3.2010370861750338e-06 -9.9368696408809815e-08 0.0000000000000000e+00  3.2038316725274608e-06 -1.4899938168005067e-07 0.0000000000000000e+00  3.2101521307102697e-06 -2.1084264956709682e-07 0.0000000000000000e+00  3.2214200285266961e-06 -2.8658556755184682e-07 0.0000000000000000e+00  3.2389112661921698e-06 -3.7661571329369185e-07 0.0000000000000000e+00  3.2635612122015937e-06 -4.7932404092221302e-07 0.0000000000000000e+00  3.2958322756174927e-06 -5.9012197638591717e-07 0.0000000000000000e+00  3.3357797401597344e-06 -7.0010258111744834e-07 0.0000000000000000e+00  3.3835274919296201e-06 -7.9431995488660625e-07 0.0000000000000000e+00  3.4391939799257709e-06 -8.4982216269418143e-07 0.0000000000000000e+00  3.4948848477882006e-06 -8.3393042316761311e-07 0.0000000000000000e+00  3.4770818446024779e-06 -7.0411821521266866e-07 0.0000000000000000e+00  2.9407416403238871e-06 -4.1539424232539528e-07 0.0000000000000000e+00  0.0000000000000000e+00 0.0000000000000000e+00 0.0000000000000000e+00  3.1712968612632790e-06 3.9333727654857376e-07 0.0000000000000000e+00  0.0000000000000000e+00 0.0000000000000000e+00 0.0000000000000000e+00  3.7677858247761481e-06 6.8543531516593325e-07 0.0000000000000000e+00  3.8613814894801627e-06 8.2503360394890207e-07 0.0000000000000000e+00  3.8903565972171869e-06 8.5046830649224670e-07 0.0000000000000000e+00  3.9182134882952281e-06 8.0153286885224038e-07 0.0000000000000000e+00  3.9482612112038435e-06 7.1030241599008747e-07 0.0000000000000000e+00  3.9783148797266560e-06 6.0031062089203515e-07 0.0000000000000000e+00  4.0073641249015741e-06 4.8758709144842461e-07 0.0000000000000000e+00  4.0351379342484249e-06 3.8217011905554820e-07 0.0000000000000000e+00  4.0613757536333496e-06 2.8958225197428497e-07 0.0000000000000000e+00  4.0855939025317338e-06 2.1207379673552235e-07 0.0000000000000000e+00  4.1070394701308802e-06 1.4959743054948021e-07 0.0000000000000000e+00  4.1247855772533496e-06 1.0054309283305584e-07 0.0000000000000000e+00  4.1379147216423739e-06 6.2271996635296616e-08 0.0000000000000000e+00  4.1456706870416791e-06 3.1501353216681062e-08 0.0000000000000000e+00  4.1475524044057072e-06 4.5788088629338642e-09 0.0000000000000000e+00  4.1433692378306193e-06 -2.2313305303866688e-08 0.0000000000000000e+00  4.1332666066247911e-06 -5.2984524486810999e-08 0.0000000000000000e+00  4.1177047986906065e-06 -9.1063723686163022e-08 0.0000000000000000e+00  4.0974216655952389e-06 -1.3979299949373517e-07 0.0000000000000000e+00  4.0733369786019538e-06 -2.0175604047982692e-07 0.0000000000000000e+00  4.0464454662368392e-06 -2.7849498485367059e-07 0.0000000000000000e+00  4.0176857067080993e-06 -3.6998058086096147e-07 0.0000000000000000e+00  3.9879199908236043e-06 -4.7389706468039141e-07 0.0000000000000000e+00  3.9580865213407706e-06 -5.8470468767986850e-07 0.0000000000000000e+00  3.9296174389218094e-06 -6.9248342025004194e-07 0.0000000000000000e+00  3.9053497269076067e-06 -7.8162865300202073e-07 0.0000000000000000e+00  3.8898306092785781e-06 -8.2959683963942680e-07 0.0000000000000000e+00  3.8808370808177222e-06 -8.0615496526086403e-07 0.0000000000000000e+00  3.8069101516660750e-06 -6.7407697135694300e-07 0.0000000000000000e+00  3.1953843988171965e-06 -3.9563350087358779e-07 0.0000000000000000e+00  0.0000000000000000e+00 0.0000000000000000e+00 0.0000000000000000e+00  3.4026960467956946e-06 3.4765361476682989e-07 0.0000000000000000e+00  0.0000000000000000e+00 0.0000000000000000e+00 0.0000000000000000e+00  4.0680324587303208e-06 6.0892775069611897e-07 0.0000000000000000e+00  4.2096605749965699e-06 7.3603706127315785e-07 0.0000000000000000e+00  4.2959683227602444e-06 7.6075849569288786e-07 0.0000000000000000e+00  4.3903614976628701e-06 7.1692267647965544e-07 0.0000000000000000e+00  4.4908954718040298e-06 6.3282570038635730e-07 0.0000000000000000e+00  4.5904670934848072e-06 5.3015920320754557e-07 0.0000000000000000e+00  4.6845564332894200e-06 4.2437633305152473e-07 0.0000000000000000e+00  4.7707296010210666e-06 3.2559900188643272e-07 0.0000000000000000e+00  4.8475893650797518e-06 2.3967580556376979e-07 0.0000000000000000e+00  4.9142131430352504e-06 1.6918926657881004e-07 0.0000000000000000e+00  4.9698345125206763e-06 1.1432289505440802e-07 0.0000000000000000e+00  5.0137308577003374e-06 7.3557891979011921e-08 0.0000000000000000e+00  5.0452667090943968e-06 4.4216477195124740e-08 0.0000000000000000e+00  5.0639485615433922e-06 2.2869751915093959e-08 0.0000000000000000e+00  5.0694577227288076e-06 5.6450345125273043e-09 0.0000000000000000e+00  5.0616768099964786e-06 -1.1531979995900715e-08 0.0000000000000000e+00  5.0406994258656793e-06 -3.2729418764616359e-08 0.0000000000000000e+00  5.0068307203664626e-06 -6.1800201220824307e-08 0.0000000000000000e+00  4.9605619764450799e-06 -1.0214291711807255e-07 0.0000000000000000e+00  4.9025647218801669e-06 -1.5639536448689348e-07 0.0000000000000000e+00  4.8336369307762529e-06 -2.2603428208364791e-07 0.0000000000000000e+00  4.7547250342393439e-06 -3.1084322034277198e-07 0.0000000000000000e+00  4.6670924222932288e-06 -4.0823445490072696e-07 0.0000000000000000e+00  4.5726960684234072e-06 -5.1243076548119779e-07 0.0000000000000000e+00  4.4748988646412567e-06 -6.1353195444759583e-07 0.0000000000000000e+00  4.3796631488526804e-06 -6.9658054009410479e-07 0.0000000000000000e+00  4.2959418530481749e-06 -7.4083148781138317e-07 0.0000000000000000e+00  4.2265437712926471e-06 -7.1953057349488016e-07 0.0000000000000000e+00  4.1013135579306308e-06 -6.0081148344036404e-07 0.0000000000000000e+00  3.4223886773154342e-06 -3.5295093362241086e-07 0.0000000000000000e+00  0.0000000000000000e+00 0.0000000000000000e+00 0.0000000000000000e+00  3.6036627573663860e-06 2.8180975267333085e-07 0.0000000000000000e+00  0.0000000000000000e+00 0.0000000000000000e+00 0.0000000000000000e+00  4.3303235542526906e-06 4.9401089452038060e-07 0.0000000000000000e+00  4.5153237706399158e-06 5.9367355571735541e-07 0.0000000000000000e+00  4.6535844206783383e-06 6.0729283705425760e-07 0.0000000000000000e+00  4.8088467052426732e-06 5.6322444900864241e-07 0.0000000000000000e+00  4.9748012354134611e-06 4.8553323213260322e-07 0.0000000000000000e+00  5.1400054724223589e-06 3.9309066615852456e-07 0.0000000000000000e+00  5.2965832796620116e-06 2.9967751529907667e-07 0.0000000000000000e+00  5.4397962912215425e-06 2.1452776382856788e-07 0.0000000000000000e+00  5.5668320438447706e-06 1.4306883123709878e-07 0.0000000000000000e+00  5.6760240989750039e-06 8.7703058182968421e-08 0.0000000000000000e+00  5.7663166751032954e-06 4.8529302178387979e-08 0.0000000000000000e+00  5.8369735172461162e-06 2.3964257973048234e-08 0.0000000000000000e+00  5.8874790495397807e-06 1.1245099165213733e-08 0.0000000000000000e+00  5.9174937260510956e-06 6.8279175221174978e-09 0.0000000000000000e+00  5.9268206238473994e-06 6.6991738283558880e-09 0.0000000000000000e+00  5.9153913798807409e-06 6.6270155240784860e-09 0.0000000000000000e+00  5.883