<?xml version="1.0"?>
<VTKFile type="UnstructuredGrid"  version="0.1"  >
<UnstructuredGrid>
<Piece  NumberOfPoints="825" NumberOfCells="1536">
<Points>
<DataArray  type="Float64"  NumberOfComponents="3"  format="ascii">-1.045311573275908e-21 0.5 0  0.06249999998093118 0.500000000282814 0  0.06249999881457101 0.5625000011958736 0  -2.566191754802422e-09 0.5625000001001496 0  0.124999999844994 0.5000000002473335 0  0.1249999992459431 0.5625000011078608 0  0.1874999994810202 0.4999999998954272 0  0.187499999118566 0.5625000005626147 0  0.2499999989267577 0.4999999994086515 0  0.2499999986538479 0.5624999998249564 0  0.3124999981256306 0.4999999986163526 0  0.3124999979079566 0.5624999988105183 0  0.3749999966128187 0.4999999971313691 0  0.3749999968137586 0.5624999975576599 0  0.437499995101265 0.4999999959482464 0  0.437499995634429 0.5624999964448545 0  0.4999999936513143 0.499999994787592 0  0.499999994557118 0.5624999953473779 0  0.5624999921912869 0.4999999932221989 0  0.5624999936579049 0.562499994431834 0  0.6249999921403885 0.4999999932889816 0  0.6249999932739676 0.5624999943382771 0  0.6874999929330311 0.4999999942120122 0  0.687499993410396 0.5624999945184372 0  0.7499999929111958 0.4999999935152325 0  0.7499999936261066 0.5624999944824915 0  0.8124999937034573 0.4999999941911615 0  0.8124999940967487 0.562499994839764 0  0.8749999948090164 0.4999999948804608 0  0.8749999947523113 0.5624999950607303 0  0.9374999949453225 0.4999999940034929 0  0.9374999952642271 0.5624999949675163 0  0.9999999958751232 0.4999999946319985 0  0.9999999958913003 0.5624999952521974 0  1.062499996922401 0.4999999951593921 0  1.062499996567317 0.5624999953583831 0  1.124999996875366 0.499999994174078 0  1.124999997008739 0.5624999951464746 0  1.18749999754198 0.4999999945962555 0  1.187499997481458 0.5624999953101807 0  1.2499999983899 0.4999999951070332 0  1.249999997955823 0.5624999953670259 0  1.312499998126224 0.4999999941849102 0  1.312499998157916 0.5624999951629334 0  1.374999998461836 0.4999999945988094 0  1.374999998336094 0.5624999953344962 0  1.437499998815708 0.4999999949854584 0  1.437499998461073 0.56249999546447 0  1.499999998357991 0.4999999944959317 0  1.499999998310034 0.5624999956009558 0  1.562499998407413 0.4999999955955051 0  1.562499998167146 0.5624999963057999 0  1.624999998646733 0.4999999968943747 0  1.624999998099061 0.5624999971131266 0  1.687499998656525 0.4999999974929332 0  1.687499997955756 0.5624999978688057 0  1.749999999031586 0.4999999985525208 0  1.749999997876044 0.5624999987997215 0  1.812499999429003 0.4999999992219915 0  1.81249999782653 0.5624999996600843 0  1.874999999666933 0.4999999995178206 0  1.874999997679982 0.5625000006011706 0  1.937499999920808 0.4999999999311013 0  1.937499997728963 0.5625000019575015 0  2 0.5 0  2.000000000086567 0.5625000033523004 0  0.06249999796980169 0.6250000012946431 0  -2.97478369688753e-09 0.6250000005692179 0  0.1249999984959699 0.6250000012839345 0  0.1874999985723583 0.6250000008012712 0  0.2499999982923009 0.6250000000501895 0  0.3124999977347749 0.6249999990985083 0  0.3749999969453272 0.624999998040825 0  0.4374999960538445 0.6249999970197888 0  0.4999999952031018 0.624999996096412 0  0.5624999944809134 0.6249999954061612 0  0.62499999402895 0.6249999951084494 0  0.6874999939188166 0.6249999950666463 0  0.7499999940320484 0.6249999951213562 0  0.8124999943269801 0.6249999952802504 0  0.8749999947750913 0.6249999954292179 0  0.9374999952566673 0.6249999955221596 0  0.999999995768308 0.624999995646462 0  1.062499996307527 0.6249999957207382 0  1.124999996778895 0.624999995721526 0  1.187499997193806 0.6249999957585904 0  1.249999997566049 0.624999995779166 0  1.312499997816612 0.6249999957714549 0  1.374999997959696 0.6249999958446544 0  1.437499998006256 0.6249999959854303 0  1.499999997905872 0.6249999962468297 0  1.562499997722252 0.6249999967398974 0  1.62499999751781 0.6249999973959653 0  1.687499997279813 0.6249999981640822 0  1.749999997044681 0.6249999990670989 0  1.812499996842999 0.6250000000874548 0  1.874999996736811 0.6250000012819711 0  1.937499997067585 0.6250000026075034 0  1.999999998259714 0.6250000030983028 0  0.06249999751395399 0.6875000010496933 0  -3.008265676326226e-09 0.687500000581187 0  0.124999997912637 0.6875000010701857 0  0.1874999980428881 0.6875000006973083 0  0.2499999978954494 0.6875000000542273 0  0.3124999975098094 0.687499999239054 0  0.3749999969418665 0.6874999983462337 0  0.4374999962774366 0.6874999974725846 0  0.4999999956116625 0.6874999967002362 0  0.5624999950290867 0.6874999961157906 0  0.6249999946177093 0.6874999957760158 0  0.6874999944281921 0.6874999956421525 0  0.7499999944396039 0.6874999956400587 0  0.8124999946185302 0.6874999957176888 0  0.8749999949267401 0.687499995820642 0  0.9374999953079389 0.6874999959181455 0  0.9999999957300773 0.6874999960090292 0  1.06249999616758 0.6874999960754717 0  1.12499999657869 0.6874999961128898 0  1.187499996944003 0.6874999961432036 0  1.249999997250425 0.6874999961701517 0  1.312499997468254 0.6874999962055116 0  1.374999997585813 0.6874999962859069 0  1.437499997598441 0.6874999964405645 0  1.4999999974996 0.6874999967090228 0  1.562499997314929 0.6874999971310377 0  1.624999997080041 0.6874999977051299 0  1.687499996819588 0.6874999984182146 0  1.749999996572014 0.6874999992657965 0  1.812499996394057 0.6875000002320403 0  1.874999996383874 0.6875000012647843 0  1.937499996683658 0.6875000021500991 0  1.999999997179382 0.6875000024490577 0  0.06249999725658603 0.7500000006693591 0  -3.006794186830731e-09 0.7500000003620699 0  0.1249999975053928 0.7500000006939969 0  0.1874999976136326 0.7500000004203975 0  0.2499999975342016 0.7499999999123521 0  0.312499997273358 0.7499999992511039 0  0.3749999968679105 0.7499999985192459 0  0.4374999963759036 0.7499999977962395 0  0.4999999958650569 0.7499999971532015 0  0.5624999954030486 0.7499999966494995 0  0.6249999950520697 0.7499999963163944 0  0.6874999948517836 0.7499999961417947 0  0.7499999948078769 0.7499999960870016 0  0.8124999949046344 0.7499999961095679 0  0.8749999951142077 0.749999996170986 0  0.9374999954015107 0.7499999962446806 0  0.9999999957352006 0.7499999963161451 0  1.062499996086596 0.7499999963751709 0  1.124999996426331 0.749999996419598 0  1.187499996731135 0.7499999964565091 0  1.249999996981646 0.7499999964951612 0  1.312499997158394 0.7499999965505033 0  1.374999997248122 0.7499999966460393 0  1.437499997244608 0.7499999968087945 0  1.499999997149828 0.7499999970678692 0  1.562499996980526 0.7499999974469361 0  1.624999996763724 0.7499999979538621 0  1.687499996531459 0.7499999985834157 0  1.749999996325181 0.7499999993188633 0  1.812499996198212 0.7500000001199427 0  1.874999996209566 0.7500000008970759 0  1.937499996375643 0.7500000014857416 0  1.999999996554282 0.7500000017392097 0  0.06249999708049078 0.8125000002628392 0  -3.040052414036906e-09 0.8125000000556296 0  0.124999997217194 0.8125000002840769 0  0.1874999972839775 0.812500000086764 0  0.2499999972323856 0.8124999997004362 0  0.3124999970523651 0.8124999991823125 0  0.37499999676239 0.8124999985980029 0  0.4374999964000839 0.8124999980120161 0  0.4999999960134326 0.8124999974816013 0  0.562499995653065 0.8124999970508407 0  0.6249999953648925 0.8124999967427864 0  0.687499995180923 0.8124999965553211 0  0.7499999951135663 0.8124999964676204 0  0.812499995158014 0.8124999964511079 0  0.8749999952973493 0.8124999964777314 0  0.9374999955077696 0.8124999965252789 0  0.9999999957637186 0.8124999965786713 0  1.062499996039793 0.8124999966289368 0  1.124999996311437 0.812499996673545 0  1.187499996556793 0.8124999967161293 0  1.249999996756924 0.8124999967650449 0  1.31249999689576 0.8124999968335651 0  1.374999996962051 0.8124999969398026 0  1.437499996951116 0.8124999971047444 0  1.499999996866659 0.8124999973492623 0  1.562499996722533 0.8124999976891031 0  1.624999996541616 0.8124999981297241 0  1.687499996353713 0.8124999986635981 0  1.749999996194339 0.8124999992667774 0  1.812499996100434 0.8124999998915904 0  1.874999996096321 0.8125000004595815 0  1.937499996163532 0.8125000008747318 0  1.999999996216486 0.8125000010925411 0  0.06249999693345063 0.8749999998837633 0  -3.11472935484694e-09 0.8749999997369037 0  0.1249999969993236 0.8749999999017931 0  0.1874999970300317 0.8749999997603727 0  0.2499999969878397 0.8749999994718975 0  0.312499996858388 0.8749999990742219 0  0.3749999966488265 0.8749999986162508 0  0.4374999963824057 0.8749999981482658 0  0.4999999960921921 0.8749999977152335 0  0.5624999958148336 0.8749999973514231 0  0.6249999955843695 0.8749999970759815 0  0.6874999954262716 0.8749999968915172 0  0.749999995353671 0.8749999967872882 0  0.8124999953672365 0.8749999967451433 0  0.8749999954575495 0.8749999967452929 0  0.9374999956084803 0.8749999967703994 0  0.99999999580045 0.8749999968075375 0  1.062499996012634 0.8749999968487555 0  1.124999996224457 0.8749999968912836 0  1.187499996416878 0.8749999969373223 0  1.24999999657325 0.874999996993517 0  1.31249999668013 0.8749999970705243 0  1.374999996728544 0.8749999971822331 0  1.437499996715403 0.8749999973440953 0  1.499999996644771 0.8749999975704756 0  1.562499996528518 0.8749999978710594 0  1.624999996385622 0.8749999982470889 0  1.687499996240307 0.8749999986881387 0  1.74999999611894 0.874999999169041 0  1.812499996044053 0.8749999996475311 0  1.874999996023925 0.875000000067064 0  1.937499996041052 0.8750000003739925 0  1.99999999605564 0.8750000005532192 0  0.06249999679448509 0.9374999995546144 0  -3.221675420575556e-09 0.9374999994427831 0  0.1249999968209928 0.9374999995717891 0  0.187499996827815 0.9374999994711737 0  0.2499999967892028 0.9374999992576406 0  0.3124999966922817 0.9374999989558443 0  0.3749999965386932 0.9374999986009742 0  0.4374999963423689 0.9374999982309796 0  0.499999996125557 0.9374999978806099 0  0.5624999959142252 0.9374999975769209 0  0.6249999957333716 0.9374999973363065 0  0.6874999956028154 0.9374999971637168 
[...]
<PointData  Vectors="u"> 
<DataArray  type="Float64"  Name="u"  NumberOfComponents="3" format="ascii">-3.1677230890205421e-27 6.5804902537373265e-25 0.0000000000000000e+00  -1.8942424719314342e-10 3.9209305097334915e-09 0.0000000000000000e+00  4.1372554665778459e-07 6.8312968947700048e-08 0.0000000000000000e+00  0.0000000000000000e+00 0.0000000000000000e+00 0.0000000000000000e+00  -1.0056226542750060e-09 6.1543985591458123e-09 0.0000000000000000e+00  4.5428438221678138e-07 9.8727400269586688e-08 0.0000000000000000e+00  -2.1020256197506852e-09 8.2303113698467040e-09 0.0000000000000000e+00  3.9472512526028829e-07 9.9737166463128295e-08 0.0000000000000000e+00  -3.3956356075732797e-09 1.0347423440313346e-08 0.0000000000000000e+00  3.2547244528113928e-07 8.9637098196423548e-08 0.0000000000000000e+00  -5.8005952948070397e-09 9.0922688874754873e-09 0.0000000000000000e+00  2.6221828884617650e-07 7.5981218671960866e-08 0.0000000000000000e+00  -7.7625944800073552e-09 8.7841608416878443e-09 0.0000000000000000e+00  2.0850843848135700e-07 6.2088021353899911e-08 0.0000000000000000e+00  -9.6120738380452267e-09 8.8105815734846784e-09 0.0000000000000000e+00  1.6479702956248259e-07 4.9442484382078056e-08 0.0000000000000000e+00  -1.2967318590193863e-08 5.1332070199832892e-09 0.0000000000000000e+00  1.3016532967557284e-07 3.8095561140447640e-08 0.0000000000000000e+00  -1.5964095150363767e-08 1.4337994446690240e-09 0.0000000000000000e+00  1.0348621321923552e-07 2.8247529707339491e-08 0.0000000000000000e+00  -1.8050157949936651e-08 -1.0563564786229171e-09 0.0000000000000000e+00  8.3631742672157047e-08 2.0380364862463914e-08 0.0000000000000000e+00  -1.8105919259843295e-08 2.0804148633323083e-10 0.0000000000000000e+00  6.9461424181150455e-08 1.4633166758419500e-08 0.0000000000000000e+00  -1.8230687909640741e-08 9.0832951998971767e-10 0.0000000000000000e+00  5.9681532622189601e-08 1.0524025831906595e-08 0.0000000000000000e+00  -1.7634561950102763e-08 3.1893492833329295e-09 0.0000000000000000e+00  5.3091933621380761e-08 7.4604934658075038e-09 0.0000000000000000e+00  -1.8753590580272750e-08 1.7054128197591676e-09 0.0000000000000000e+00  4.8748631736868219e-08 4.8877559465330764e-09 0.0000000000000000e+00  -1.8648335658743840e-08 2.2528730713661067e-09 0.0000000000000000e+00  4.6160550481170110e-08 2.6656522128988399e-09 0.0000000000000000e+00  -1.8235708569574449e-08 3.5620201582181830e-09 0.0000000000000000e+00  4.5103010423912898e-08 8.5133729613166076e-10 0.0000000000000000e+00  -1.9471901967094900e-08 1.2830850298237395e-09 0.0000000000000000e+00  4.5230861684727017e-08 -1.2651280107218224e-09 0.0000000000000000e+00  -1.9614018085681520e-08 8.6237025012753385e-10 0.0000000000000000e+00  4.6776620703002096e-08 -3.7582515175281536e-09 0.0000000000000000e+00  -1.9289104471260811e-08 1.3571143246186305e-09 0.0000000000000000e+00  5.0237114243506585e-08 -6.5564400593378076e-09 0.0000000000000000e+00  -2.0258863825965314e-08 -1.4073978225309445e-09 0.0000000000000000e+00  5.6012819026426679e-08 -1.0334638761994863e-08 0.0000000000000000e+00  -1.9787528112188296e-08 -1.9983387689300961e-09 0.0000000000000000e+00  6.5038338948102479e-08 -1.5191064064410566e-08 0.0000000000000000e+00  -1.8726201998446230e-08 -1.5950865845411459e-09 0.0000000000000000e+00  7.8458607179908837e-08 -2.1128573938676750e-08 0.0000000000000000e+00  -1.8990961367428958e-08 -4.5108408712401357e-09 0.0000000000000000e+00  9.7295307188322781e-08 -2.8879702523604893e-08 0.0000000000000000e+00  -1.7784445934013290e-08 -5.2559320305341612e-09 0.0000000000000000e+00  1.2309177535093836e-07 -3.8462455298444866e-08 0.0000000000000000e+00  -1.5970275915151825e-08 -4.7896452810248263e-09 0.0000000000000000e+00  1.5753103818050980e-07 -4.9636222201488121e-08 0.0000000000000000e+00  -1.5450778902652382e-08 -7.1347532153976120e-09 0.0000000000000000e+00  2.0200656573532000e-07 -6.2735454808254817e-08 0.0000000000000000e+00  -1.3416951198508480e-08 -6.8240453739628996e-09 0.0000000000000000e+00  2.5810842508782358e-07 -7.7027452790747347e-08 0.0000000000000000e+00  -1.0718033789373677e-08 -5.0150926669651976e-09 0.0000000000000000e+00  3.2671637933296103e-07 -9.0514454077329070e-08 0.0000000000000000e+00  -9.2241479280441818e-09 -5.8257913214215683e-09 0.0000000000000000e+00  4.0520037531733829e-07 -9.9320621441237774e-08 0.0000000000000000e+00  -6.1241987305642380e-09 -3.7834731477458445e-09 0.0000000000000000e+00  4.7612066360598238e-07 -9.3433364148014915e-08 0.0000000000000000e+00  -2.6872567358208239e-09 -1.0143163467352388e-09 0.0000000000000000e+00  4.5089934965377705e-07 -5.4132486990113575e-08 0.0000000000000000e+00  2.4173339984837289e-25 1.0450450405417370e-26 0.0000000000000000e+00  0.0000000000000000e+00 0.0000000000000000e+00 0.0000000000000000e+00  6.2540076954286353e-07 1.0711238833083061e-07 0.0000000000000000e+00  0.0000000000000000e+00 0.0000000000000000e+00 0.0000000000000000e+00  6.9333375626714249e-07 1.6630051406798544e-07 0.0000000000000000e+00  6.5008726526755314e-07 1.7565368649316182e-07 0.0000000000000000e+00  5.8245848460689349e-07 1.6147721361794936e-07 0.0000000000000000e+00  5.1439129049370486e-07 1.3824739467791285e-07 0.0000000000000000e+00  4.5355398129376471e-07 1.1307784183154698e-07 0.0000000000000000e+00  4.0240895241914390e-07 8.9362297182051370e-08 0.0000000000000000e+00  3.6125278778382955e-07 6.8505849850182149e-08 0.0000000000000000e+00  3.2934229407855401e-07 5.0965370087145091e-08 0.0000000000000000e+00  3.0548185144079023e-07 3.6839591343416455e-08 0.0000000000000000e+00  2.8827354379733553e-07 2.5882941791023451e-08 0.0000000000000000e+00  2.7634571794778083e-07 1.7674045389077035e-08 0.0000000000000000e+00  2.6838441521212405e-07 1.1585764020002290e-08 0.0000000000000000e+00  2.6333569502418547e-07 7.0714122532327244e-09 0.0000000000000000e+00  2.6039623113559088e-07 3.5285760120484764e-09 0.0000000000000000e+00  2.5914198301888325e-07 5.1417916796927542e-10 0.0000000000000000e+00  2.5938262659685942e-07 -2.5342840771012854e-09 0.0000000000000000e+00  2.6124202366051339e-07 -6.1933101582544205e-09 0.0000000000000000e+00  2.6522279844115983e-07 -1.0903438178167217e-08 0.0000000000000000e+00  2.7205500328835891e-07 -1.7220629322982606e-08 0.0000000000000000e+00  2.8273659737318100e-07 -2.5719743266654570e-08 0.0000000000000000e+00  2.9856402341085521e-07 -3.6823764030022570e-08 0.0000000000000000e+00  3.2093522972742281e-07 -5.1003025931526285e-08 0.0000000000000000e+00  3.5133124115593417e-07 -6.8586298091511532e-08 0.0000000000000000e+00  3.9125343994826566e-07 -8.9462818782857562e-08 0.0000000000000000e+00  4.4188289698504792e-07 -1.1308770761391714e-07 0.0000000000000000e+00  5.0384014706393489e-07 -1.3785106292732981e-07 0.0000000000000000e+00  5.7650804793478278e-07 -1.5987348850010023e-07 0.0000000000000000e+00  6.5483169827302240e-07 -1.7136502643703185e-07 0.0000000000000000e+00  7.1421836529650028e-07 -1.5760875288408327e-07 0.0000000000000000e+00  6.3909042082747742e-07 -9.6045225135132453e-08 0.0000000000000000e+00  0.0000000000000000e+00 0.0000000000000000e+00 0.0000000000000000e+00  7.5174577602648701e-07 1.2544364688982194e-07 0.0000000000000000e+00  0.0000000000000000e+00 0.0000000000000000e+00 0.0000000000000000e+00  8.6353128701036341e-07 2.0605220872873372e-07 0.0000000000000000e+00  8.4132511236614125e-07 2.2846873645202670e-07 0.0000000000000000e+00  7.9291673565857330e-07 2.1758697444754255e-07 0.0000000000000000e+00  7.4096532340614062e-07 1.9092780227579580e-07 0.0000000000000000e+00  6.9244297487222335e-07 1.5873583228139620e-07 0.0000000000000000e+00  6.5041833691391538e-07 1.2662144805984467e-07 0.0000000000000000e+00  6.1603664049204858e-07 9.7449512187648773e-08 0.0000000000000000e+00  5.8926163612335614e-07 7.2494751252933116e-08 0.0000000000000000e+00  5.6935667449994793e-07 5.2130904532414889e-08 0.0000000000000000e+00  5.5523669407012439e-07 3.6188647881067013e-08 0.0000000000000000e+00  5.4569976903978348e-07 2.4173886327386601e-08 0.0000000000000000e+00  5.3957242635999813e-07 1.5399683716077584e-08 0.0000000000000000e+00  5.3583663264110719e-07 9.0831010349044428e-09 0.0000000000000000e+00  5.3372281788189115e-07 4.4057819021176500e-09 0.0000000000000000e+00  5.3275200522068011e-07 5.4255458161981039e-10 0.0000000000000000e+00  5.3275209920514841e-07 -3.3388687955332517e-09 0.0000000000000000e+00  5.3386182154942081e-07 -8.0839139458564088e-09 0.0000000000000000e+00  5.3653595100237057e-07 -1.4508380733954742e-08 0.0000000000000000e+00  5.4150988653393536e-07 -2.3405559307429390e-08 0.0000000000000000e+00  5.4975964404695532e-07 -3.5532902677647057e-08 0.0000000000000000e+00  5.6244474424191579e-07 -5.1530997245033472e-08 0.0000000000000000e+00  5.8080174555153035e-07 -7.1857631437652255e-08 0.0000000000000000e+00  6.0601844835206268e-07 -9.6654585073750792e-08 0.0000000000000000e+00  6.3908154622635010e-07 -1.2547557247656418e-07 0.0000000000000000e+00  6.8056184135187269e-07 -1.5690861296629554e-07 0.0000000000000000e+00  7.3037134025692430e-07 -1.8791444973657351e-07 0.0000000000000000e+00  7.8721325970618882e-07 -2.1269652311191770e-07 0.0000000000000000e+00  8.4570293185065343e-07 -2.2111899862777397e-07 0.0000000000000000e+00  8.8020071627623196e-07 -1.9699561677846085e-07 0.0000000000000000e+00  7.6397289443803265e-07 -1.1951803228197545e-07 0.0000000000000000e+00  0.0000000000000000e+00 0.0000000000000000e+00 0.0000000000000000e+00  8.5835356293358469e-07 1.3232069932611727e-07 0.0000000000000000e+00  0.0000000000000000e+00 0.0000000000000000e+00 0.0000000000000000e+00  1.0035606005259207e-06 2.2334182109037336e-07 0.0000000000000000e+00  1.0025712593482847e-06 2.5636725839810090e-07 0.0000000000000000e+00  9.7658209630290487e-07 2.5131781930565023e-07 0.0000000000000000e+00  9.4692187699356005e-07 2.2541035084567455e-07 0.0000000000000000e+00  9.1869437096621641e-07 1.9028966288606593e-07 0.0000000000000000e+00  8.9406514555965016e-07 1.5318609836876042e-07 0.0000000000000000e+00  8.7411104717317924e-07 1.1828576772288287e-07 0.0000000000000000e+00  8.5908283794210483e-07 8.7777251580396852e-08 0.0000000000000000e+00  8.4861457760200977e-07 6.2568628214405185e-08 0.0000000000000000e+00  8.4196685939055091e-07 4.2751057231767992e-08 0.0000000000000000e+00  8.3821385346355015e-07 2.7897035426625465e-08 0.0000000000000000e+00  8.3639611280964695e-07 1.7259078911171712e-08 0.0000000000000000e+00  8.3565004005321128e-07 9.8937599060892226e-09 0.0000000000000000e+00  8.3530411760900999e-07 4.7523456452006926e-09 0.0000000000000000e+00  8.3492982990913638e-07 7.2892314580068380e-10 0.0000000000000000e+00  8.3437157976207029e-07 -3.3050733232510567e-09 0.0000000000000000e+00  8.3375650185713247e-07 -8.4773482969493287e-09 0.0000000000000000e+00  8.3348362465483200e-07 -1.5884210831971480e-08 0.0000000000000000e+00  8.3419881508293070e-07 -2.6555437434216954e-08 0.0000000000000000e+00  8.3674214200096303e-07 -4.1404756987299937e-08 0.0000000000000000e+00  8.4207299294181807e-07 -6.1144163737771140e-08 0.0000000000000000e+00  8.5116489788564699e-07 -8.6153851342506011e-08 0.0000000000000000e+00  8.6488465261726275e-07 -1.1628593805221000e-07 0.0000000000000000e+00  8.8386525998591013e-07 -1.5055802904851875e-07 0.0000000000000000e+00  9.0838953178996536e-07 -1.8669508102331585e-07 0.0000000000000000e+00  9.3833098696164862e-07 -2.2046346399615481e-07 0.0000000000000000e+00  9.7288850101458267e-07 -2.4475580390016393e-07 0.0000000000000000e+00  1.0079467292392706e-06 -2.4853218076805860e-07 0.0000000000000000e+00  1.0187231723554081e-06 -2.1614874337119240e-07 0.0000000000000000e+00  8.6911465878709265e-07 -1.2968354054102521e-07 0.0000000000000000e+00  0.0000000000000000e+00 0.0000000000000000e+00 0.0000000000000000e+00  9.5421477396604004e-07 1.3018602441294752e-07 0.0000000000000000e+00  0.0000000000000000e+00 0.0000000000000000e+00 0.0000000000000000e+00  1.1275744854891366e-06 2.2296365400002094e-07 0.0000000000000000e+00  1.1459126387100466e-06 2.6117079271809898e-07 0.0000000000000000e+00  1.1417031647138062e-06 2.6070175953858831e-07 0.0000000000000000e+00  1.1357395922963563e-06 2.3699747929750638e-07 0.0000000000000000e+00  1.1308281783115010e-06 2.0166012069568174e-07 0.0000000000000000e+00  1.1276041456135738e-06 1.6262509001318065e-07 0.0000000000000000e+00  1.1264240323097772e-06 1.2492893621862720e-07 0.0000000000000000e+00  1.1273468766223015e-06 9.1486226425871677e-08 0.0000000000000000e+00  1.1300936220370854e-06 6.3717074061302677e-08 0.0000000000000000e+00  1.1341273426015617e-06 4.2013824644053908e-08 0.0000000000000000e+00  1.1387504522231181e-06 2.6075920543011623e-08 0.0000000000000000e+00  1.1432141617721124e-06 1.5144027242372014e-08 0.0000000000000000e+00  1.1468304303968885e-06 8.1642710140028508e-09 0.0000000000000000e+00  1.1490546501998011e-06 3.9020900144347315e-09 0.0000000000000000e+00  1.1495358742994004e-06 1.0211592375389166e-09 0.0000000000000000e+00  1.1481461726726730e-06 -1.8602029538488976e-09 0.0000000000000000e+00  1.1449906902432227e-06 -6.1203507980761778e-09 0.0000000000000000e+00  1.1404002247365941e-06 -1.3085757335145145e-08 0.0000000000000000e+00  1.1349017473857685e-06 -2.3973239819425152e-08 0.0000000000000000e+00  1.1291767931183573e-06 -3.9810865755699659e-08 0.0000000000000000e+00  1.1239875074230244e-06 -6.1324273059650599e-08 0.0000000000000000e+00  1.1200913633792577e-06 -8.8773453834492160e-08 0.0000000000000000e+00  1.1181641594773241e-06 -1.2171968524107836e-07 0.0000000000000000e+00  1.1187452669278037e-06 -1.5869960734858512e-07 0.0000000000000000e+00  1.1222453467125167e-06 -1.9678398369375843e-07 0.0000000000000000e+00  1.1290844539021080e-06 -2.3101115316725166e-07 0.0000000000000000e+00  1.1396580741992146e-06 -2.5373571120359003e-07 0.0000000000000000e+00  1.1517039739068337e-06 -2.5405095295736056e-07 0.0000000000000000e+00  1.1414145291469527e-06 -2.1772638496891833e-07 0.0000000000000000e+00  9.6324321599916653e-07 -1.2960223067160968e-07 0.0000000000000000e+00  0.0000000000000000e+00 0.0000000000000000e+00 0.0000000000000000e+00  1.0405459738216182e-06 1.2012287952103793e-07 0.0000000000000000e+00  0.0000000000000000e+00 0.0000000000000000e+00 0.0000000000000000e+00  1.2391451409645829e-06 2.0730903635482561e-07 0.0000000000000000e+00  1.2748676623665127e-06 2.4498420009786259e-07 0.0000000000000000e+00  1.2910442885692404e-06 2.4617886423057201e-07 0.0000000000000000e+00  1.3081892663743291e-06 2.2428720770419464e-07 0.0000000000000000e+00  1.3270717142702311e-06 1.9006861551683384e-07 0.0000000000000000e+00  1.3466365029427606e-06 1.5139606276845201e-07 0.0000000000000000e+00  1.3661922096559334e-06 1.1360729942069694e-07 0.0000000000000000e+00  1.3852758318213975e-06 8.0005121444556808e-08 0.0000000000000000e+00  1.4034323797095072e-06 5.2345328578151604e-08 0.0000000000000000e+00  1.4201487263234771e-06 3.1248394883066142e-08 0.0000000000000000e+00  1.4348489090554884e-06 1.6523539691404445e-08 0.0000000000000000e+00  1.4469400574928336e-06 7.4176974678982878e-09 0.0000000000000000e+00  1.4558848149412093e-06 2.7985558344589863e-09 0.0000000000000000e+00  1.4612596312840259e-06 1.2902931179321020e-09 0.0000000000000000e+00  1.4627920927556623e-06 1.3742149189167970e-09 0.0000000000000000e+00  1.4603832004836190e-06 1.4665103756619265e-09 0.0000000000000000e+00  1.4541173047493125e-06 -1.3661499709015081e-11 0.0000000000000000e+00  1.4442538780336624e-06 -4.5760541112756461e-09 0.0000000000000000e+00  1.4312109673555220e-06 -1.3581139162419240e-08 0.0000000000000000e+00  1.4155282438651814e-06 -2.8140288705134340e-08 0.0000000000000000e+00  1.3978233098132092e-06 -4.8981295720914683e-08 0.0000000000000000e+00  1.3787367346705025e-06 -7.6266445523457549e-08 0.0000000000000000e+00  1.3589124680489227e-06 -1.0935168690249230e-07 0.0000000000000000e+00  1.3390367341600524e-06 -1.4647539435464816e-07 0.0000000000000000e+00  1.3199619012642404e-06 -1.8437547272680157e-07 0.0000000000000000e+00  1.3029880875564184e-06 -2.1785792750820787e-07 0.0000000000000000e+00  1.2899568083884806e-06 -2.3938144903472515e-07 0.0000000000000000e+00  1.2804635264573602e-06 -2.3880291775886993e-07 0.0000000000000000e+00  1.2513743861558683e-06 -2.0359026933122496e-07 0.0000000000000000e+00  1.0480093539493263e-06 -1.2093581405533548e-07 0.0000000000000000e+00  0.0000000000000000e+00 0.0000000000000000e+00 0.0000000000000000e+00  1.1171598374359240e-06 1.0288359410685172e-07 0.0000000000000000e+00  0.0000000000000000e+00 0.0000000000000000e+00 0.0000000000000000e+00  1.3384297541888808e-06 1.7792218933819479e-07 0.0000000000000000e+00  1.3897845940726935e-06 2.0974641328208481e-07 0.0000000000000000e+00  1.4245389226723748e-06 2.0923557621812192e-07 0.0000000000000000e+00  1.4631912686123865e-06 1.8784918173814442e-07 0.0000000000000000e+00  1.5047984880679126e-06 1.5513464828038023e-07 0.0000000000000000e+00  1.5467109574331428e-06 1.1838497549485260e-07 0.0000000000000000e+00  1.5871092051246041e-06 8.2762103243924101e-08 0.0000000000000000e+00  1.6248450860401527e-06 5.1598501794988001e-08 0.0000000000000000e+00  1.6591147255363409e-06 2.6746478823354098e-08 0.0000000000000000e+00  1.6892838845556998e-06 8.9118676073361555e-09 0.0000000000000000e+00  1.7147930498531910e-06 -2.0547318962623114e-09 0.0000000000000000e+00  1.7351346580797599e-06 -6.9223913357787558e-09 0.0000000000000000e+00  1.7498787630044485e-06 -6.8914129026467418e-09 0.0000000000000000e+00  1.7586990744132960e-06 -3.4481389546845555e-09 0.0000000000000000e+00  1.7613896693869599e-06 1.7483713029295059e-09 0.0000000000000000e+00  1.7578777067311927e-06 6.9591889725237156e-09 0.0000000000000000e+00  1.7482281590613750e-06 1.0447789554262315e-08 0.0000000000000000e+00  1.7326424924222818e-06 1.0562426164696488e-08 0.0000000000000000e+00  1.7114467106853380e-06 5.8281434404989244e-09 0.0000000000000000e+00  1.6850833590297792e-06 -4.9404127432119143e-09 0.0000000000000000e+00  1.6540864180329812e-06 -2.2495839630937336e-08 0.0000000000000000e+00  1.6190768290990434e-06 -4.6974735840020011e-08 0.0000000000000000e+00  1.5808040656606342e-06 -7.7667556177548411e-08 0.0000000000000000e+00  1.5402606782718829e-06 -1.1274444366502208e-07 0.0000000000000000e+00  1.4989047690504033e-06 -1.4894661952831378e-07 0.0000000000000000e+00  1.4590336703503734e-06 -1.8127751742381390e-07 0.0000000000000000e+00  1.4239086914499830e-06 -2.0276077376622243e-07 0.0000000000000000e+00  1.3947590118313965e-06 -2.0436627524933580e-07 0.0000000000000000e+00  1.3488651437828609e-06 -1.7530161346629255e-07 0.0000000000000000e+00  1.1232296642945804e-06 -1.0472979165204655e-07 0.0000000000000000e+00  0.0000000000000000e+00 0.0000000000000000e+00 0.0000000000000000e+00  1.1833056657442138e-06 7.9182765629697101e-08 0.0000000000000000e+00  0.0000000000000000e+00 0.0000000000000000e+00 0.0000000000000000e+00  1.4244873214283341e-06 1.3622907743576191e-07 0.0000000000000000e+00  1.4896104670505245e-06 1.5745025579959574e-07 0.0000000000000000e+00  1.5407731135078057e-06 1.5197480872808017e-07 0.0000000000000000e+00  1.5986140016379377e-06 1.2947112331899439e-07 0.0000000000000000e+00  1.6607863858734033e-06 9.8116723216336561e-08 0.0000000000000000e+00  1.7232516932473777e-06 6.4297267088428452e-08 0.0000000000000000e+00  1.7831288320181836e-06 3.2639264721941940e-08 0.0000000000000000e+00  1.8385546834193674e-06 6.1871170576562592e-09 0.0000000000000000e+00  1.8883019204835520e-06 -1.3353433716850104e-08 0.0000000000000000e+00  1.9315311749387762e-06 -2.5354600498410425e-08 0.0000000000000000e+00  1.9676235204992050e-06 -3.0024774390802486e-08 0.0000000000000000e+00  1.9960977437924825e-06 -2.8195096897287759e-08 0.0000000000000000e+00  2.0165884950951847e-06 -2.1143796330367958e-08 0.0000000000000000e+00  2.0288385859925647e-06 -1.0452234633920493e-08 0.0000000000000000e+00  2.0326934295034059e-06 2.1121581616239122e-09 0.0000000000000000e+00  2.0281000724589008e-06 1.4694048344894883e-08 0.0000000000000000e+00  2.0