<?xml version="1.0"?>
<VTKFile type="UnstructuredGrid"  version="0.1"  >
<UnstructuredGrid>
<Piece  NumberOfPoints="759" NumberOfCells="1408">
<Points>
<DataArray  type="Float64"  NumberOfComponents="3"  format="ascii">0 0.46875 0  0.03125 0.46875 0  0.03125 0.515625 0  0 0.515625 0  0.0625 0.46875 0  0.0625 0.515625 0  0.09375 0.46875 0  0.09375 0.515625 0  0.125 0.46875 0  0.125 0.515625 0  0.15625 0.46875 0  0.15625 0.515625 0  0.1875 0.46875 0  0.1875 0.515625 0  0.21875 0.46875 0  0.21875 0.515625 0  0.25 0.46875 0  0.25 0.515625 0  0.28125 0.46875 0  0.28125 0.515625 0  0.3125 0.46875 0  0.3125 0.515625 0  0.34375 0.46875 0  0.34375 0.515625 0  0.375 0.46875 0  0.375 0.515625 0  0.40625 0.46875 0  0.40625 0.515625 0  0.4375 0.46875 0  0.4375 0.515625 0  0.46875 0.46875 0  0.46875 0.515625 0  0.5 0.46875 0  0.5 0.515625 0  0.53125 0.46875 0  0.53125 0.515625 0  0.5625 0.46875 0  0.5625 0.515625 0  0.59375 0.46875 0  0.59375 0.515625 0  0.625 0.46875 0  0.625 0.515625 0  0.65625 0.46875 0  0.65625 0.515625 0  0.6875 0.46875 0  0.6875 0.515625 0  0.71875 0.46875 0  0.71875 0.515625 0  0.75 0.46875 0  0.75 0.515625 0  0.78125 0.46875 0  0.78125 0.515625 0  0.8125 0.46875 0  0.8125 0.515625 0  0.84375 0.46875 0  0.84375 0.515625 0  0.875 0.46875 0  0.875 0.515625 0  0.90625 0.46875 0  0.90625 0.515625 0  0.9375 0.46875 0  0.9375 0.515625 0  0.96875 0.46875 0  0.96875 0.515625 0  1 0.46875 0  1 0.515625 0  0.03125 0.5625 0  0 0.5625 0  0.0625 0.5625 0  0.09375 0.5625 0  0.125 0.5625 0  0.15625 0.5625 0  0.1875 0.5625 0  0.21875 0.5625 0  0.25 0.5625 0  0.28125 0.5625 0  0.3125 0.5625 0  0.34375 0.5625 0  0.375 0.5625 0  0.40625 0.5625 0  0.4375 0.5625 0  0.46875 0.5625 0  0.5 0.5625 0  0.53125 0.5625 0  0.5625 0.5625 0  0.59375 0.5625 0  0.625 0.5625 0  0.65625 0.5625 0  0.6875 0.5625 0  0.71875 0.5625 0  0.75 0.5625 0  0.78125 0.5625 0  0.8125 0.5625 0  0.84375 0.5625 0  0.875 0.5625 0  0.90625 0.5625 0  0.9375 0.5625 0  0.96875 0.5625 0  1 0.5625 0  0.03125 0.609375 0  0 0.609375 0  0.0625 0.609375 0  0.09375 0.609375 0  0.125 0.609375 0  0.15625 0.609375 0  0.1875 0.609375 0  0.21875 0.609375 0  0.25 0.609375 0  0.28125 0.609375 0  0.3125 0.609375 0  0.34375 0.609375 0  0.375 0.609375 0  0.40625 0.609375 0  0.4375 0.609375 0  0.46875 0.609375 0  0.5 0.609375 0  0.53125 0.609375 0  0.5625 0.609375 0  0.59375 0.609375 0  0.625 0.609375 0  0.65625 0.609375 0  0.6875 0.609375 0  0.71875 0.609375 0  0.75 0.609375 0  0.78125 0.609375 0  0.8125 0.609375 0  0.84375 0.609375 0  0.875 0.609375 0  0.90625 0.609375 0  0.9375 0.609375 0  0.96875 0.609375 0  1 0.609375 0  0.03125 0.65625 0  0 0.65625 0  0.0625 0.65625 0  0.09375 0.65625 0  0.125 0.65625 0  0.15625 0.65625 0  0.1875 0.65625 0  0.21875 0.65625 0  0.25 0.65625 0  0.28125 0.65625 0  0.3125 0.65625 0  0.34375 0.65625 0  0.375 0.65625 0  0.40625 0.65625 0  0.4375 0.65625 0  0.46875 0.65625 0  0.5 0.65625 0  0.53125 0.65625 0  0.5625 0.65625 0  0.59375 0.65625 0  0.625 0.65625 0  0.65625 0.65625 0  0.6875 0.65625 0  0.71875 0.65625 0  0.75 0.65625 0  0.78125 0.65625 0  0.8125 0.65625 0  0.84375 0.65625 0  0.875 0.65625 0  0.90625 0.65625 0  0.9375 0.65625 0  0.96875 0.65625 0  1 0.65625 0  0.03125 0.703125 0  0 0.703125 0  0.0625 0.703125 0  0.09375 0.703125 0  0.125 0.703125 0  0.15625 0.703125 0  0.1875 0.703125 0  0.21875 0.703125 0  0.25 0.703125 0  0.28125 0.703125 0  0.3125 0.703125 0  0.34375 0.703125 0  0.375 0.703125 0  0.40625 0.703125 0  0.4375 0.703125 0  0.46875 0.703125 0  0.5 0.703125 0  0.53125 0.703125 0  0.5625 0.703125 0  0.59375 0.703125 0  0.625 0.703125 0  0.65625 0.703125 0  0.6875 0.703125 0  0.71875 0.703125 0  0.75 0.703125 0  0.78125 0.703125 0  0.8125 0.703125 0  0.84375 0.703125 0  0.875 0.703125 0  0.90625 0.703125 0  0.9375 0.703125 0  0.96875 0.703125 0  1 0.703125 0  0.03125 0.75 0  0 0.75 0  0.0625 0.75 0  0.09375 0.75 0  0.125 0.75 0  0.15625 0.75 0  0.1875 0.75 0  0.21875 0.75 0  0.25 0.75 0  0.28125 0.75 0  0.3125 0.75 0  0.34375 0.75 0  0.375 0.75 0  0.40625 0.75 0  0.4375 0.75 0  0.46875 0.75 0  0.5 0.75 0  0.53125 0.75 0  0.5625 0.75 0  0.59375 0.75 0  0.625 0.75 0  0.65625 0.75 0  0.6875 0.75 0  0.71875 0.75 0  0.75 0.75 0  0.78125 0.75 0  0.8125 0.75 0  0.84375 0.75 0  0.875 0.75 0  0.90625 0.75 0  0.9375 0.75 0  0.96875 0.75 0  1 0.75 0  0.03125 0.796875 0  0 0.796875 0  0.0625 0.796875 0  0.09375 0.796875 0  0.125 0.796875 0  0.15625 0.796875 0  0.1875 0.796875 0  0.21875 0.796875 0  0.25 0.796875 0  0.28125 0.796875 0  0.3125 0.796875 0  0.34375 0.796875 0  0.375 0.796875 0  0.40625 0.796875 0  0.4375 0.796875 0  0.46875 0.796875 0  0.5 0.796875 0  0.53125 0.796875 0  0.5625 0.796875 0  0.59375 0.796875 0  0.625 0.796875 0  0.65625 0.796875 0  0.6875 0.796875 0  0.71875 0.796875 0  0.75 0.796875 0  0.78125 0.796875 0  0.8125 0.796875 0  0.84375 0.796875 0  0.875 0.796875 0  0.90625 0.796875 0  0.9375 0.796875 0  0.96875 0.796875 0  1 0.796875 0  0.03125 0.84375 0  0 0.84375 0  0.0625 0.84375 0  0.09375 0.84375 0  0.125 0.84375 0  0.15625 0.84375 0  0.1875 0.84375 0  0.21875 0.84375 0  0.25 0.84375 0  0.28125 0.84375 0  0.3125 0.84375 0  0.34375 0.84375 0  0.375 0.84375 0  0.40625 0.84375 0  0.4375 0.84375 0  0.46875 0.84375 0  0.5 0.84375 0  0.53125 0.84375 0  0.5625 0.84375 0  0.59375 0.84375 0  0.625 0.84375 0  0.65625 0.84375 0  0.6875 0.84375 0  0.71875 0.84375 0  0.75 0.84375 0  0.78125 0.84375 0  0.8125 0.84375 0  0.84375 0.84375 0  0.875 0.84375 0  0.90625 0.84375 0  0.9375 0.84375 0  0.96875 0.84375 0  1 0.84375 0  0.03125 0.890625 0  0 0.890625 0  0.0625 0.890625 0  0.09375 0.890625 0  0.125 0.890625 0  0.15625 0.890625 0  0.1875 0.890625 0  0.21875 0.890625 0  0.25 0.890625 0  0.28125 0.890625 0  0.3125 0.890625 0  0.34375 0.890625 0  0.375 0.890625 0  0.40625 0.890625 0  0.4375 0.890625 0  0.46875 0.890625 0  0.5 0.890625 0  0.53125 0.890625 0  0.5625 0.890625 0  0.59375 0.890625 0  0.625 0.890625 0  0.65625 0.890625 0  0.6875 0.890625 0  0.71875 0.890625 0  0.75 0.890625 0  0.78125 0.890625 0  0.8125 0.890625 0  0.84375 0.890625 0  0.875 0.890625 0  0.90625 0.890625 0  0.9375 0.890625 0  0.96875 0.890625 0  1 0.890625 0  0.03125 0.9375 0  0 0.9375 0  0.0625 0.9375 0  0.09375 0.9375 0  0.125 0.9375 0  0.15625 0.9375 0  0.1875 0.9375 0  0.21875 0.9375 0  0.25 0.9375 0  0.28125 0.9375 0  0.3125 0.9375 0  0.34375 0.9375 0  0.375 0.9375 0  0.40625 0.9375 0  0.4375 0.9375 0  0.46875 0.9375 0  0.5 0.9375 0  0.53125 0.9375 0  0.5625 0.9375 0  0.59375 0.9375 0  0.625 0.9375 0  0.65625 0.9375 0  0.6875 0.9375 0  0.71875 0.9375 0  0.75 0.9375 0  0.78125 0.9375 0  0.8125 0.9375 0  0.84375 0.9375 0  0.875 0.9375 0  0.90625 0.9375 0  0.9375 0.9375 0  0.96875 0.9375 0  1 0.9375 0  0.03125 0.984375 0  0 0.984375 0  0.0625 0.984375 0  0.09375 0.984375 0  0.125 0.984375 0  0.15625 0.984375 0  0.1875 0.984375 0  0.21875 0.984375 0  0.25 0.984375 0  0.28125 0.984375 0  0.3125 0.984375 0  0.34375 0.984375 0  0.375 0.984375 0  0.40625 0.984375 0  0.4375 0.984375 0  0.46875 0.984375 0  0.5 0.984375 0  0.53125 0.984375 0  0.5625 0.984375 0  0.59375 0.984375 0  0.625 0.984375 0  0.65625 0.984375 0  0.6875 0.984375 0  0.71875 0.984375 0  0.75 0.984375 0  0.78125 0.984375 0  0.8125 0.984375 0  0.84375 0.984375 0  0.875 0.984375 0  0.90625 0.984375 0  0.9375 0.984375 0  0.96875 0.984375 0  1 0.984375 0  0.03125 1.03125 0  0 1.03125 0  0.0625 1.03125 0  0.09375 1.03125 0  0.125 1.03125 0  0.15625 1.03125 0  0.1875 1.03125 0  0.21875 1.03125 0  0.25 1.03125 0  0.28125 1.03125 0  0.3125 1.03125 0  0.34375 1.03125 0  0.375 1.03125 0  0.40625 1.03125 0  0.4375 1.03125 0  0.46875 1.03125 0  0.5 1.03125 0  0.53125 1.03125 0  0.5625 1.03125 0  0.59375 1.03125 0  0.625 1.03125 0  0.65625 1.03125 0  0.6875 1.03125 0  0.71875 1.03125 0  0.75 1.03125 0  0.78125 1.03125 0  0.8125 1.03125 0  0.84375 1.03125 0  0.875 1.03125 0  0.90625 1.03125 0  0.9375 1.03125 0  0.96875 1.03125 0  1 1.03125 0  0.03125 1.078125 0  0 1.078125 0  0.0625 1.078125 0  0.09375 1.078125 0  0.125 1.078125 0  0.15625 1.078125 0  0.1875 1.078125 0  0.21875 1.078125 0  0.25 1.078125 0  0.28125 1.078125 0  0.3125 1.078125 0  0.34375 1.078125 0  0.375 1.078125 0  0.40625 1.078125 0  0.4375 1.078125 0  0.46875 1.078125 0  0.5 1.078125 0  0.53125 1.078125 0  0.5625 1.078125 0  0.59375 1.078125 0  0.625 1.078125 0  0.65625 1.078125 0  0.6875 1.078125 0  0.71875 1.078125 0  0.75 1.078125 0  0.78125 1.078125 0  0.8125 1.078125 0  0.84375 1.078125 0  0.875 1.078125 0  0.90625 1.078125 0  0.9375 1.078125 0  0.96875 1.078125 0  1 1.078125 0  0.03125 1.125 0  0 1.125 0  0.0625 1.125 0  0.09375 1.125 0  0.125 1.125 0  0.15625 1.125 0  0.1875 1.125 0  0.21875 1.125 0  0.25 1.125 0  0.28125 1.125 0  0.3125 1.125 0  0.34375 1.125 0  0.375 1.125 0  0.40625 1.125 0  0.4375 1.125 0  0.46875 1.125 0  0.5 1.125 0  0.53125 1.125 0  0.5625 1.125 0  0.59375 1.125 0  0.625 1.125 0  0.65625 1.125 0  0.6875 1.125 0  0.71875 1.125 0  0.75 1.125 0  0.78125 1.125 0  0.8125 1.125 0  0.84375 1.125 0  0.875 1.125 0  0.90625 1.125 0  0.9375 1.125 0  0.96875 1.125 0  1 1.125 0  0.03125 1.171875 0  0 1.171875 0  0.0625 1.171875 0  0.09375 1.171875 0  0.125 1.171875 0  0.15625 1.171875 0  0.1875 1.171875 0  0.21875 1.171875 0  0.25 1.171875 0  0.28125 1.171875 0  0.3125 1.171875 0  0.34375 1.171875 0  0.375 1.171875 0  0.40625 1.171875 0  0.4375 1.171875 0  0.46875 1.171875 0  0.5 1.171875 0  0.53125 1.171875 0  0.5625 1.171875 0  0.59375 1.171875 0  0.625 1.171875 0  0.65625 1.171875 0  0.6875 1.171875 0  0.71875 1.171875 0  0.75 1.171875 0  0.78125 1.171875 0  0.8125 1.171875 0  0.84375 1.171875 0  0.875 1.171875 0  0.90625 1.171875 0  0.9375 1.171875 0  0.96875 1.171875 0  1 1.171875 0  0.03125 1.21875 0  0 1.21875 0  0.0625 1.21875 0  0.09375 1.21875 0  0.125 1.21875 0  0.15625 1.21875 0  0.1875 1.21875 0  0.21875 1.21875 0  0.25 1.21875 0  0.28125 1.21875 0  0.3125 1.21875 0  0.34375 1.21875 0  0.375 1.21875 0  0.40625 1.21875 0  0.4375 1.21875 0  0.46875 1.21875 0  0.5 1.21875 0  0.53125 1.21875 0  0.5
[...]
<PointData  Vectors="u"> 
<DataArray  type="Float64"  Name="u"  NumberOfComponents="3" format="ascii">1.4116401397117569e-02 7.1452961776266447e-04 0.0000000000000000e+00  1.6277594788464963e-02 3.9893960219174272e-03 0.0000000000000000e+00  1.7909144358192516e-02 4.2714885492825391e-03 0.0000000000000000e+00  1.5337466739790168e-02 9.3240336011664153e-04 0.0000000000000000e+00  1.5726478920755006e-02 7.2650184498001388e-03 0.0000000000000000e+00  1.7523748718351311e-02 7.8605041371977921e-03 0.0000000000000000e+00  1.4635499687050668e-02 1.0194597675475559e-02 0.0000000000000000e+00  1.6218954577183642e-02 1.1032496423240272e-02 0.0000000000000000e+00  1.3206364440265485e-02 1.2658701117652219e-02 0.0000000000000000e+00  1.4558906945605212e-02 1.3676000492013509e-02 0.0000000000000000e+00  1.1547067361406897e-02 1.4591627693125164e-02 0.0000000000000000e+00  1.2696879414869409e-02 1.5729459651422504e-02 0.0000000000000000e+00  9.7472970938080068e-03 1.5949100994331604e-02 0.0000000000000000e+00  1.0721973579769051e-02 1.7154521769312123e-02 0.0000000000000000e+00  7.8853435321392142e-03 1.6707077743037646e-02 0.0000000000000000e+00  8.7091863379448499e-03 1.7933222404450222e-02 0.0000000000000000e+00  6.0301711745381435e-03 1.6861461372993596e-02 0.0000000000000000e+00  6.7244910775059929e-03 1.8067048725244356e-02 0.0000000000000000e+00  4.2423886301675628e-03 1.6426885403499920e-02 0.0000000000000000e+00  4.8257588192889937e-03 1.7575810519087340e-02 0.0000000000000000e+00  2.5748480613769398e-03 1.5435088189724453e-02 0.0000000000000000e+00  3.0635719345736096e-03 1.6496005129994381e-02 0.0000000000000000e+00  1.0731511234129379e-03 1.3932962805680509e-02 0.0000000000000000e+00  1.4814285808317281e-03 1.4879010733062571e-02 0.0000000000000000e+00  -2.2398431626992969e-04 1.1980579238610395e-02 0.0000000000000000e+00  1.1630092389001925e-04 1.2789082929405008e-02 0.0000000000000000e+00  -1.2843380633738829e-03 9.6491058288412767e-03 0.0000000000000000e+00  -1.0012059573606704e-03 1.0301406714551199e-02 0.0000000000000000e+00  -2.0819653098491861e-03 7.0188191037592754e-03 0.0000000000000000e+00  -1.8465194418594839e-03 7.5000883911285118e-03 0.0000000000000000e+00  -2.5969918964697429e-03 4.1770796229681859e-03 0.0000000000000000e+00  -2.4010616855292682e-03 4.4762584075659891e-03 0.0000000000000000e+00  -2.8154928271197149e-03 1.2163923195192593e-03 0.0000000000000000e+00  -2.6520357683884272e-03 1.3261342159233234e-03 0.0000000000000000e+00  -2.7294287696017342e-03 -1.7675674070720337e-03 0.0000000000000000e+00  -2.5925291064365749e-03 -1.8508330350138825e-03 0.0000000000000000e+00  -2.3367057784487114e-03 -4.6779008683484656e-03 0.0000000000000000e+00  -2.2215448384092715e-03 -4.9538835281923901e-03 0.0000000000000000e+00  -1.6412669552517819e-03 -7.4185142516022687e-03 0.0000000000000000e+00  -1.5442394865442216e-03 -7.8828700276502434e-03 0.0000000000000000e+00  -6.5326501420969471e-04 -9.8961890497025733e-03 0.0000000000000000e+00  -5.7210957304445055e-04 -1.0540304264196554e-02 0.0000000000000000e+00  6.1070613300954124e-04 -1.2022787749685612e-02 0.0000000000000000e+00  6.7657753259790267e-04 -1.2833474602634861e-02 0.0000000000000000e+00  2.1273105168656101e-03 -1.3717545977185698e-02 0.0000000000000000e+00  2.1764359508684729e-03 -1.4676733352443768e-02 0.0000000000000000e+00  3.8662201646137160e-03 -1.4909525877696356e-02 0.0000000000000000e+00  3.8944696361980276e-03 -1.5993886421565254e-02 0.0000000000000000e+00  5.7898221065245973e-03 -1.5540144759481938e-02 0.0000000000000000e+00  5.7897040421046406e-03 -1.6720742831247120e-02 0.0000000000000000e+00  7.8529927268663792e-03 -1.5565812617906200e-02 0.0000000000000000e+00  7.8126760382676158e-03 -1.6807710032452131e-02 0.0000000000000000e+00  1.0002713815866057e-02 -1.4960565053326077e-02 0.0000000000000000e+00  9.9050453408912036e-03 -1.6222437058370835e-02 0.0000000000000000e+00  1.2176840479536500e-02 -1.3718705188518178e-02 0.0000000000000000e+00  1.1998426954572639e-02 -1.4952356803840420e-02 0.0000000000000000e+00  1.4298488578929321e-02 -1.1857512033172941e-02 0.0000000000000000e+00  1.4010395167062772e-02 -1.3007184211574303e-02 0.0000000000000000e+00  1.6249774629919139e-02 -9.4210526053709262e-03 0.0000000000000000e+00  1.5825468727307803e-02 -1.0421946035972860e-02 0.0000000000000000e+00  1.7752578272827307e-02 -6.4917803426006379e-03 0.0000000000000000e+00  1.7208733990518612e-02 -7.2655743037761591e-03 0.0000000000000000e+00  1.7927576617198644e-02 -3.2623582921890572e-03 0.0000000000000000e+00  1.7459893501685666e-02 -3.6937566404832691e-03 0.0000000000000000e+00  1.5189945681839824e-02 -3.0009062238039563e-04 0.0000000000000000e+00  1.4590423249953995e-02 -4.1159118317702319e-04 0.0000000000000000e+00  1.9809735387066280e-02 5.0661778317661506e-03 0.0000000000000000e+00  1.7169906542750583e-02 1.3983233898504067e-03 0.0000000000000000e+00  1.9303854806208214e-02 9.3118701238176140e-03 0.0000000000000000e+00  1.7925723054931699e-02 1.3011101588360838e-02 0.0000000000000000e+00  1.6157623173668839e-02 1.6036969846930531e-02 0.0000000000000000e+00  1.4168985363810003e-02 1.8340962245014993e-02 0.0000000000000000e+00  1.2062183315549124e-02 1.9898677167287604e-02 0.0000000000000000e+00  9.9185028253297291e-03 2.0705425798231206e-02 0.0000000000000000e+00  7.8080839393713701e-03 2.0775308227219551e-02 0.0000000000000000e+00  5.7924361711030889e-03 2.0139911701674153e-02 0.0000000000000000e+00  3.9246073408004773e-03 1.8846797935554535e-02 0.0000000000000000e+00  2.2501754549248843e-03 1.6957643470950409e-02 0.0000000000000000e+00  8.0730726790151071e-04 1.4546432060005844e-02 0.0000000000000000e+00  -3.7234890180364727e-04 1.1697479163542336e-02 0.0000000000000000e+00  -1.2637324092884272e-03 8.5036653714050704e-03 0.0000000000000000e+00  -1.8477151587646249e-03 5.0645553168692471e-03 0.0000000000000000e+00  -2.1112145983051196e-03 1.4847362663256037e-03 0.0000000000000000e+00  -2.0468986555308372e-03 -2.1279717013266411e-03 0.0000000000000000e+00  -1.6535183639007575e-03 -5.6641606485931788e-03 0.0000000000000000e+00  -9.3588904093769342e-04 -9.0146649669063800e-03 0.0000000000000000e+00  9.4558436313226337e-05 -1.2072360165683502e-02 0.0000000000000000e+00  1.4194910441677885e-03 -1.4734198236152619e-02 0.0000000000000000e+00  3.0128871794094817e-03 -1.6903308094888072e-02 0.0000000000000000e+00  4.8406517520815529e-03 -1.8491347997646217e-02 0.0000000000000000e+00  6.8597423275623941e-03 -1.9420936108747591e-02 0.0000000000000000e+00  9.0177595241652010e-03 -1.9628254553397274e-02 0.0000000000000000e+00  1.1252072923628082e-02 -1.9065606877496467e-02 0.0000000000000000e+00  1.3488745216908318e-02 -1.7703934160435902e-02 0.0000000000000000e+00  1.5637769947832350e-02 -1.5535152371554775e-02 0.0000000000000000e+00  1.7572051669752665e-02 -1.2575104696303917e-02 0.0000000000000000e+00  1.9028166183883727e-02 -8.8733608017363304e-03 0.0000000000000000e+00  1.9188202588429772e-02 -4.5895408423842010e-03 0.0000000000000000e+00  1.5681247065923460e-02 -8.5876885106430842e-04 0.0000000000000000e+00  2.2684892951889832e-02 6.0281208034216891e-03 0.0000000000000000e+00  1.9756186327653046e-02 1.8639414498797667e-03 0.0000000000000000e+00  2.2100835358828050e-02 1.1038770263224971e-02 0.0000000000000000e+00  2.0603351552257416e-02 1.5355445974011773e-02 0.0000000000000000e+00  1.8691578061371988e-02 1.8829873093489404e-02 0.0000000000000000e+00  1.6542526510235200e-02 2.1425988158540677e-02 0.0000000000000000e+00  1.4266162400252178e-02 2.3135534071850428e-02 0.0000000000000000e+00  1.1951683746104436e-02 2.3970066308115396e-02 0.0000000000000000e+00  9.6763471937937207e-03 2.3959181261553785e-02 0.0000000000000000e+00  7.5064879651947133e-03 2.3149099253355711e-02 0.0000000000000000e+00  5.4994503009868920e-03 2.1600960067168617e-02 0.0000000000000000e+00  3.7032105015494038e-03 1.9389080283365907e-02 0.0000000000000000e+00  2.1581699359147525e-03 1.6599034266209251e-02 0.0000000000000000e+00  8.9682911623989144e-04 1.3325958681589676e-02 0.0000000000000000e+00  -5.4679640449085823e-05 9.6727370633102033e-03 0.0000000000000000e+00  -6.7697100684742221e-04 5.7485308300803031e-03 0.0000000000000000e+00  -9.5624269024691610e-04 1.6671358569541313e-03 0.0000000000000000e+00  -8.8487087014023445e-04 -2.4543227530744948e-03 0.0000000000000000e+00  -4.6082311874043834e-04 -6.4969597314796096e-03 0.0000000000000000e+00  3.1152015230267603e-04 -1.0341481667373214e-02 0.0000000000000000e+00  1.4214359452588241e-03 -1.3869885492086297e-02 0.0000000000000000e+00  2.8506816340156307e-03 -1.6967101206288620e-02 0.0000000000000000e+00  4.5731713096063414e-03 -1.9523013722265177e-02 0.0000000000000000e+00  6.5536176196440334e-03 -2.1434559201691253e-02 0.0000000000000000e+00  8.7470546998630501e-03 -2.2608150001085590e-02 0.0000000000000000e+00  1.1097458728357445e-02 -2.2962175663482257e-02 0.0000000000000000e+00  1.3537294966792710e-02 -2.2429653209639223e-02 0.0000000000000000e+00  1.5985488254316418e-02 -2.0960793787195776e-02 0.0000000000000000e+00  1.8342396193999137e-02 -1.8525606015347081e-02 0.0000000000000000e+00  2.0464052953689898e-02 -1.5117521666613169e-02 0.0000000000000000e+00  2.2041982074553976e-02 -1.0767020553628237e-02 0.0000000000000000e+00  2.2093538824614498e-02 -5.6509280688851358e-03 0.0000000000000000e+00  1.7841475018039191e-02 -1.3598293644333462e-03 0.0000000000000000e+00  2.6554407587657140e-02 7.0926766710181777e-03 0.0000000000000000e+00  2.3140644964305963e-02 2.3477420457265648e-03 0.0000000000000000e+00  2.5920204694641649e-02 1.2945534189416937e-02 0.0000000000000000e+00  2.4291374520696740e-02 1.7936852629334036e-02 0.0000000000000000e+00  2.2217000544325988e-02 2.1897911132828032e-02 0.0000000000000000e+00  1.9887244934718586e-02 2.4807000401266644e-02 0.0000000000000000e+00  1.7422362077918419e-02 2.6674161094432738e-02 0.0000000000000000e+00  1.4920901722263891e-02 2.7529641000631478e-02 0.0000000000000000e+00  1.2466628318165888e-02 2.7421126481621073e-02 0.0000000000000000e+00  1.0132015872723412e-02 2.6411903164114115e-02 0.0000000000000000e+00  7.9775589042699133e-03 2.4578912586764853e-02 0.0000000000000000e+00  6.0544308208446071e-03 2.2010860651750907e-02 0.0000000000000000e+00  4.4036921235344143e-03 1.8806374548052802e-02 0.0000000000000000e+00  3.0591849297433803e-03 1.5072272441956925e-02 0.0000000000000000e+00  2.0465510325549797e-03 1.0922116678843335e-02 0.0000000000000000e+00  1.3858516882712835e-03 6.4747748313321992e-03 0.0000000000000000e+00  1.0904281394143686e-03 1.8533856221326281e-03 0.0000000000000000e+00  1.1688261398756757e-03 -2.8158740220843004e-03 0.0000000000000000e+00  1.6232898372431129e-03 -7.4046232988040969e-03 0.0000000000000000e+00  2.4508673471444532e-03 -1.1783523779938680e-02 0.0000000000000000e+00  3.6415678890651497e-03 -1.5823281037856022e-02 0.0000000000000000e+00  5.1785742683535356e-03 -1.9396174947056345e-02 0.0000000000000000e+00  7.0360814397701496e-03 -2.2377573173974211e-02 0.0000000000000000e+00  9.1790108911124439e-03 -2.4647964232236700e-02 0.0000000000000000e+00  1.1560784663891256e-02 -2.6095156658787227e-02 0.0000000000000000e+00  1.4122820831044955e-02 -2.6616864658335872e-02 0.0000000000000000e+00  1.6792575661946016e-02 -2.6123465163858130e-02 0.0000000000000000e+00  1.9482169147907763e-02 -2.4540924332926820e-02 0.0000000000000000e+00  2.2081282184570183e-02 -2.1813996883053053e-02 0.0000000000000000e+00  2.4426786649357546e-02 -1.7911166490423455e-02 0.0000000000000000e+00  2.6155298438909211e-02 -1.2843079055221010e-02 0.0000000000000000e+00  2.6081731179255593e-02 -6.8066066841054101e-03 0.0000000000000000e+00  2.0887048711723012e-02 -1.8581570629454922e-03 0.0000000000000000e+00  3.1464577853912178e-02 8.2557507380363500e-03 0.0000000000000000e+00  2.7365435097097827e-02 2.8712403992238200e-03 0.0000000000000000e+00  3.0807987921652243e-02 1.5022669688678904e-02 0.0000000000000000e+00  2.9043920441058343e-02 2.0740693710070576e-02 0.0000000000000000e+00  2.6801026161709107e-02 2.5220868184332706e-02 0.0000000000000000e+00  2.4288821181479396e-02 2.8457717147775247e-02 0.0000000000000000e+00  2.1639551357526404e-02 3.0482442504358838e-02 0.0000000000000000e+00  1.8959816662577150e-02 3.1346995354653219e-02 0.0000000000000000e+00  1.6340676279597042e-02 3.1120270650255175e-02 0.0000000000000000e+00  1.3858157254960184e-02 2.9885424663682283e-02 0.0000000000000000e+00  1.1576294498157702e-02 2.7737692496898031e-02 0.0000000000000000e+00  9.5462173702650904e-03 2.4782099014196212e-02 0.0000000000000000e+00  7.8100235142014645e-03 2.1131690725830796e-02 0.0000000000000000e+00  6.3995607778030992e-03 1.6905810445651811e-02 0.0000000000000000e+00  5.3406075585971840e-03 1.2228901035256064e-02 0.0000000000000000e+00  4.6510165362897878e-03 7.2294785258696943e-03 0.0000000000000000e+00  4.3447282430243714e-03 2.0393896290845930e-03 0.0000000000000000e+00  4.4292168642732273e-03 -3.2066590815984374e-03 0.0000000000000000e+00  4.9085375383169086e-03 -8.3716738192096043e-03 0.0000000000000000e+00  5.7803255623991179e-03 -1.3316674440816545e-02 0.0000000000000000e+00  7.0375181006991552e-03 -1.7901470491470214e-02 0.0000000000000000e+00  8.6649942102662216e-03 -2.1985329799800092e-02 0.0000000000000000e+00  1.0639895323360486e-02 -2.5428321232055618e-02 0.0000000000000000e+00  1.2928337936038488e-02 -2.8092829550931460e-02 0.0000000000000000e+00  1.5484859511276370e-02 -2.9845723363880958e-02 0.0000000000000000e+00  1.8249482988691466e-02 -3.0560916820549223e-02 0.0000000000000000e+00  2.1146871232178094e-02 -3.0122416891690051e-02 0.0000000000000000e+00  2.4082968764939865e-02 -2.8427811402017753e-02 0.0000000000000000e+00  2.6937504230643814e-02 -2.5392366309947834e-02 0.0000000000000000e+00  2.9525885428970687e-02 -2.0955738278735800e-02 0.0000000000000000e+00  3.1419716221224060e-02 -1.5105821993371241e-02 0.0000000000000000e+00  3.1186029581420648e-02 -8.0601160026328288e-03 0.0000000000000000e+00  2.4808132994491812e-02 -2.3729759840400090e-03 0.0000000000000000e+00  3.7508511355195263e-02 9.5177020588525334e-03 0.0000000000000000e+00  3.2504238753450924e-02 3.4512676406844882e-03 0.0000000000000000e+00  3.6862295773010853e-02 1.7266470426886317e-02 0.0000000000000000e+00  3.4968535643541361e-02 2.3757717712712359e-02 0.0000000000000000e+00  3.2565010248179087e-02 2.8781669063981042e-02 0.0000000000000000e+00  2.9887506029413934e-02 3.2352307721622009e-02 0.0000000000000000e+00  2.7080043802387741e-02 3.4525766179849975e-02 0.0000000000000000e+00  2.4257482120847312e-02 3.5379804284268401e-02 0.0000000000000000e+00  2.1515092325159222e-02 3.5008309849688057e-02 0.0000000000000000e+00  1.8931792380312753e-02 3.3517875192681283e-02 0.0000000000000000e+00  1.6570684936323569e-02 3.1024763135119364e-02 0.0000000000000000e+00  1.4482284645882715e-02 2.7652538050971912e-02 0.0000000000000000e+00  1.2704595165207139e-02 2.3529874977445391e-02 0.0000000000000000e+00  1.1267704228815947e-02 1.8789270879023077e-02 0.0000000000000000e+00  1.0192519061742350e-02 1.3565829098433173e-02 0.0000000000000000e+00  9.4960957466780887e-03 7.9969906912824625e-03 0.0000000000000000e+00  9.1888275469663265e-03 2.2221640488541109e-03 0.0000000000000000e+00  9.2796241427715760e-03 -3.6169183038919960e-03 0.0000000000000000e+00  9.7716491140594445e-03 -9.3760278333696479e-03 0.0000000000000000e+00  1.0666431782679489e-02 -1.4908039997785831e-02 0.0000000000000000e+00  1.1958980279082185e-02 -2.0062714194321818e-02 0.0000000000000000e+00  1.3639746810307499e-02 -2.4686864962144763e-02 0.0000000000000000e+00  1.5689769849970128e-02 -2.8624788468489881e-02 0.0000000000000000e+00  1.8080571812010917e-02 -3.1719532097400291e-02 0.0000000000000000e+00  2.0769935401565826e-02 -3.3814631899190796e-02 0.0000000000000000e+00  2.3700476574994835e-02 -3.4756799765827850e-02 0.0000000000000000e+00  2.6796366471598991e-02 -3.4399272172478568e-02 0.0000000000000000e+00  2.9960252118552196e-02 -3.2606036452164831e-02 0.0000000000000000e+00  3.3062791282122847e-02 -2.9257148654388943e-02 0.0000000000000000e+00  3.5896654154158943e-02 -2.4257540774847600e-02 0.0000000000000000e+00  3.7956711714740743e-02 -1.7567090129831219e-02 0.0000000000000000e+00  3.7509729120159506e-02 -9.4232438330339070e-03 0.0000000000000000e+00  2.9663594466574839e-02 -2.9289519745217900e-03 0.0000000000000000e+00  4.4816238076864696e-02 1.0874324542793818e-02 0.0000000000000000e+00  3.8657547806946364e-02 4.1014099461435917e-03 0.0000000000000000e+00  4.4222255547681201e-02 1.9664320453367631e-02 0.0000000000000000e+00  4.2214764085671895e-02 2.6963504486122572e-02 0.0000000000000000e+00  3.9674079631988608e-02 3.2541519239226414e-02 0.0000000000000000e+00  3.6868346123644188e-02 3.6436687806807026e-02 0.0000000000000000e+00  3.3954090773148995e-02 3.8735594026588861e-02 0.0000000000000000e+00  3.1052329994689324e-02 3.9547285541921530e-02 0.0000000000000000e+00  2.8260387792286571e-02 3.8995704675959419e-02 0.0000000000000000e+00  2.5655571591495899e-02 3.7215114979108080e-02 0.0000000000000000e+00  2.3297306292732484e-02 3.4346191456881184e-02 0.0000000000000000e+00  2.1229602833581777e-02 3.0533150081245897e-02 0.0000000000000000e+00  1.9484510364455792e-02 2.5921547197701733e-02 0.0000000000000000e+00  1.8083898705325684e-02 2.0656912868016998e-02 0.0000000000000000e+00  1.7043930172286018e-02 1.4884337926638066e-02 0.0000000000000000e+00  1.6374670185642051e-02 8.7483366072260392e-03 0.0000000000000000e+00  1.6085450068483456e-02 2.3938821989824620e-03 0.0000000000000000e+00  1.6181646308358874e-02 -4.0329589303429196e-03 0.0000000000000000e+00  1.6669877868407540e-02 -1.0383237785968566e-02 0.0000000000000000e+00  1.7552691552270624e-02 -1.6504188450485680e-02 0.0000000000000000e+00  1.8832421032840121e-02 -2.2237638729942874e-02 0.0000000000000000e+00  2.0504946612745600e-02 -2.7419263289986028e-02 0.0000000000000000e+00  2.2560816919704740e-02 -3.1878184337730993e-02 0.0000000000000000e+00  2.4979486898066901e-02 -3.5437262057685243e-02 0.0000000000000000e+00  2.7727702744783072e-02 -3.7914660732072863e-02 0.0000000000000000e+00  3.0754735939052872e-02 -3.9126160395400664e-02 0.0000000000000000e+00  3.3989354761592670e-02 -3.8889082757223851e-02 0.0000000000000000e+00  3.7334591958249112e-02 -3.7027205177891591e-02 0.0000000000000000e+00  4.0654764970674148e-02 -3.3377682238898858e-02 0.0000000000000000e+00  4.3718829835362155e-02 -2.7802340140909220e-02 0.0000000000000000e+00  4.5932246464029609e-02 -2.0224969985579089e-02 0.0000000000000000e+00  4.5200846905046659e-02 -1.0900615480098392e-02 0.0000000000000000e+00  3.5551873682430284e-02 -3.5458897259693402e-03 0.0000000000000000e+00  5.3548276546011159e-02 1.2315022501517128e-02 0.0000000000000000e+00  4.5947407061041647e-02 4.8334414787937277e-03 0.0000000000000000e+00  5.3059467638208686e-02 2.2190257124931681e-02 0.0000000000000000e+00  5.0966340162856498e-02 3.0312399712952517e-02 0.0000000000000000e+00  4.8329606559818480e-02 3.6432152137696912e-02 0.0000000000000000e+00  4.5456503956059650e-02 4.0619382597035868e-02 0.0000000000000000e+00  4.2516021426380009e-02 4.2999125426607575e-02 0.0000000000000000e+00  3.9632629920884628e-02 4.3719135053860471e-02 0.0000000000000000e+00  3.6901450693749421e-02 4.2940143680356785e-02 0.0000000000000000e+00  3.4393173930207604e-02 4.0829296929247430e-02 0.0000000000000000e+00  3.2157461446293285e-02 3.7555601370798886e-02 0.0000000000000000e+00  3.0226757670951329e-02 3.3286096321904705e-02 0.0000000000000000e+00  2.8620474476076969e-02 2.8183923822687307e-02 0.0000000000000000e+00  2.7349004152885662e-02 2.2407023561605323e-02 0.0000000000000000e+00  2.6417130869561812e-02 1.6108408041651572e-02 0.0000000000000000e+00  2.5827597311330431e-02 9.4370774690471435e-03 0.0000000000000000e+00  2.5582619164594839e-02 2.5396403003828281e-03 0.0000000000000000e+00  2.5686972348253102e-02 -4.4371222904108559e-03 0.0000000000000000e+00  