<?xml version="1.0"?>
<VTKFile type="UnstructuredGrid"  version="0.1"  >
<UnstructuredGrid>
<Piece  NumberOfPoints="759" NumberOfCells="1408">
<Points>
<DataArray  type="Float64"  NumberOfComponents="3"  format="ascii">0 0.46875 0  0.03125 0.46875 0  0.03125 0.515625 0  0 0.515625 0  0.0625 0.46875 0  0.0625 0.515625 0  0.09375 0.46875 0  0.09375 0.515625 0  0.125 0.46875 0  0.125 0.515625 0  0.15625 0.46875 0  0.15625 0.515625 0  0.1875 0.46875 0  0.1875 0.515625 0  0.21875 0.46875 0  0.21875 0.515625 0  0.25 0.46875 0  0.25 0.515625 0  0.28125 0.46875 0  0.28125 0.515625 0  0.3125 0.46875 0  0.3125 0.515625 0  0.34375 0.46875 0  0.34375 0.515625 0  0.375 0.46875 0  0.375 0.515625 0  0.40625 0.46875 0  0.40625 0.515625 0  0.4375 0.46875 0  0.4375 0.515625 0  0.46875 0.46875 0  0.46875 0.515625 0  0.5 0.46875 0  0.5 0.515625 0  0.53125 0.46875 0  0.53125 0.515625 0  0.5625 0.46875 0  0.5625 0.515625 0  0.59375 0.46875 0  0.59375 0.515625 0  0.625 0.46875 0  0.625 0.515625 0  0.65625 0.46875 0  0.65625 0.515625 0  0.6875 0.46875 0  0.6875 0.515625 0  0.71875 0.46875 0  0.71875 0.515625 0  0.75 0.46875 0  0.75 0.515625 0  0.78125 0.46875 0  0.78125 0.515625 0  0.8125 0.46875 0  0.8125 0.515625 0  0.84375 0.46875 0  0.84375 0.515625 0  0.875 0.46875 0  0.875 0.515625 0  0.90625 0.46875 0  0.90625 0.515625 0  0.9375 0.46875 0  0.9375 0.515625 0  0.96875 0.46875 0  0.96875 0.515625 0  1 0.46875 0  1 0.515625 0  0.03125 0.5625 0  0 0.5625 0  0.0625 0.5625 0  0.09375 0.5625 0  0.125 0.5625 0  0.15625 0.5625 0  0.1875 0.5625 0  0.21875 0.5625 0  0.25 0.5625 0  0.28125 0.5625 0  0.3125 0.5625 0  0.34375 0.5625 0  0.375 0.5625 0  0.40625 0.5625 0  0.4375 0.5625 0  0.46875 0.5625 0  0.5 0.5625 0  0.53125 0.5625 0  0.5625 0.5625 0  0.59375 0.5625 0  0.625 0.5625 0  0.65625 0.5625 0  0.6875 0.5625 0  0.71875 0.5625 0  0.75 0.5625 0  0.78125 0.5625 0  0.8125 0.5625 0  0.84375 0.5625 0  0.875 0.5625 0  0.90625 0.5625 0  0.9375 0.5625 0  0.96875 0.5625 0  1 0.5625 0  0.03125 0.609375 0  0 0.609375 0  0.0625 0.609375 0  0.09375 0.609375 0  0.125 0.609375 0  0.15625 0.609375 0  0.1875 0.609375 0  0.21875 0.609375 0  0.25 0.609375 0  0.28125 0.609375 0  0.3125 0.609375 0  0.34375 0.609375 0  0.375 0.609375 0  0.40625 0.609375 0  0.4375 0.609375 0  0.46875 0.609375 0  0.5 0.609375 0  0.53125 0.609375 0  0.5625 0.609375 0  0.59375 0.609375 0  0.625 0.609375 0  0.65625 0.609375 0  0.6875 0.609375 0  0.71875 0.609375 0  0.75 0.609375 0  0.78125 0.609375 0  0.8125 0.609375 0  0.84375 0.609375 0  0.875 0.609375 0  0.90625 0.609375 0  0.9375 0.609375 0  0.96875 0.609375 0  1 0.609375 0  0.03125 0.65625 0  0 0.65625 0  0.0625 0.65625 0  0.09375 0.65625 0  0.125 0.65625 0  0.15625 0.65625 0  0.1875 0.65625 0  0.21875 0.65625 0  0.25 0.65625 0  0.28125 0.65625 0  0.3125 0.65625 0  0.34375 0.65625 0  0.375 0.65625 0  0.40625 0.65625 0  0.4375 0.65625 0  0.46875 0.65625 0  0.5 0.65625 0  0.53125 0.65625 0  0.5625 0.65625 0  0.59375 0.65625 0  0.625 0.65625 0  0.65625 0.65625 0  0.6875 0.65625 0  0.71875 0.65625 0  0.75 0.65625 0  0.78125 0.65625 0  0.8125 0.65625 0  0.84375 0.65625 0  0.875 0.65625 0  0.90625 0.65625 0  0.9375 0.65625 0  0.96875 0.65625 0  1 0.65625 0  0.03125 0.703125 0  0 0.703125 0  0.0625 0.703125 0  0.09375 0.703125 0  0.125 0.703125 0  0.15625 0.703125 0  0.1875 0.703125 0  0.21875 0.703125 0  0.25 0.703125 0  0.28125 0.703125 0  0.3125 0.703125 0  0.34375 0.703125 0  0.375 0.703125 0  0.40625 0.703125 0  0.4375 0.703125 0  0.46875 0.703125 0  0.5 0.703125 0  0.53125 0.703125 0  0.5625 0.703125 0  0.59375 0.703125 0  0.625 0.703125 0  0.65625 0.703125 0  0.6875 0.703125 0  0.71875 0.703125 0  0.75 0.703125 0  0.78125 0.703125 0  0.8125 0.703125 0  0.84375 0.703125 0  0.875 0.703125 0  0.90625 0.703125 0  0.9375 0.703125 0  0.96875 0.703125 0  1 0.703125 0  0.03125 0.75 0  0 0.75 0  0.0625 0.75 0  0.09375 0.75 0  0.125 0.75 0  0.15625 0.75 0  0.1875 0.75 0  0.21875 0.75 0  0.25 0.75 0  0.28125 0.75 0  0.3125 0.75 0  0.34375 0.75 0  0.375 0.75 0  0.40625 0.75 0  0.4375 0.75 0  0.46875 0.75 0  0.5 0.75 0  0.53125 0.75 0  0.5625 0.75 0  0.59375 0.75 0  0.625 0.75 0  0.65625 0.75 0  0.6875 0.75 0  0.71875 0.75 0  0.75 0.75 0  0.78125 0.75 0  0.8125 0.75 0  0.84375 0.75 0  0.875 0.75 0  0.90625 0.75 0  0.9375 0.75 0  0.96875 0.75 0  1 0.75 0  0.03125 0.796875 0  0 0.796875 0  0.0625 0.796875 0  0.09375 0.796875 0  0.125 0.796875 0  0.15625 0.796875 0  0.1875 0.796875 0  0.21875 0.796875 0  0.25 0.796875 0  0.28125 0.796875 0  0.3125 0.796875 0  0.34375 0.796875 0  0.375 0.796875 0  0.40625 0.796875 0  0.4375 0.796875 0  0.46875 0.796875 0  0.5 0.796875 0  0.53125 0.796875 0  0.5625 0.796875 0  0.59375 0.796875 0  0.625 0.796875 0  0.65625 0.796875 0  0.6875 0.796875 0  0.71875 0.796875 0  0.75 0.796875 0  0.78125 0.796875 0  0.8125 0.796875 0  0.84375 0.796875 0  0.875 0.796875 0  0.90625 0.796875 0  0.9375 0.796875 0  0.96875 0.796875 0  1 0.796875 0  0.03125 0.84375 0  0 0.84375 0  0.0625 0.84375 0  0.09375 0.84375 0  0.125 0.84375 0  0.15625 0.84375 0  0.1875 0.84375 0  0.21875 0.84375 0  0.25 0.84375 0  0.28125 0.84375 0  0.3125 0.84375 0  0.34375 0.84375 0  0.375 0.84375 0  0.40625 0.84375 0  0.4375 0.84375 0  0.46875 0.84375 0  0.5 0.84375 0  0.53125 0.84375 0  0.5625 0.84375 0  0.59375 0.84375 0  0.625 0.84375 0  0.65625 0.84375 0  0.6875 0.84375 0  0.71875 0.84375 0  0.75 0.84375 0  0.78125 0.84375 0  0.8125 0.84375 0  0.84375 0.84375 0  0.875 0.84375 0  0.90625 0.84375 0  0.9375 0.84375 0  0.96875 0.84375 0  1 0.84375 0  0.03125 0.890625 0  0 0.890625 0  0.0625 0.890625 0  0.09375 0.890625 0  0.125 0.890625 0  0.15625 0.890625 0  0.1875 0.890625 0  0.21875 0.890625 0  0.25 0.890625 0  0.28125 0.890625 0  0.3125 0.890625 0  0.34375 0.890625 0  0.375 0.890625 0  0.40625 0.890625 0  0.4375 0.890625 0  0.46875 0.890625 0  0.5 0.890625 0  0.53125 0.890625 0  0.5625 0.890625 0  0.59375 0.890625 0  0.625 0.890625 0  0.65625 0.890625 0  0.6875 0.890625 0  0.71875 0.890625 0  0.75 0.890625 0  0.78125 0.890625 0  0.8125 0.890625 0  0.84375 0.890625 0  0.875 0.890625 0  0.90625 0.890625 0  0.9375 0.890625 0  0.96875 0.890625 0  1 0.890625 0  0.03125 0.9375 0  0 0.9375 0  0.0625 0.9375 0  0.09375 0.9375 0  0.125 0.9375 0  0.15625 0.9375 0  0.1875 0.9375 0  0.21875 0.9375 0  0.25 0.9375 0  0.28125 0.9375 0  0.3125 0.9375 0  0.34375 0.9375 0  0.375 0.9375 0  0.40625 0.9375 0  0.4375 0.9375 0  0.46875 0.9375 0  0.5 0.9375 0  0.53125 0.9375 0  0.5625 0.9375 0  0.59375 0.9375 0  0.625 0.9375 0  0.65625 0.9375 0  0.6875 0.9375 0  0.71875 0.9375 0  0.75 0.9375 0  0.78125 0.9375 0  0.8125 0.9375 0  0.84375 0.9375 0  0.875 0.9375 0  0.90625 0.9375 0  0.9375 0.9375 0  0.96875 0.9375 0  1 0.9375 0  0.03125 0.984375 0  0 0.984375 0  0.0625 0.984375 0  0.09375 0.984375 0  0.125 0.984375 0  0.15625 0.984375 0  0.1875 0.984375 0  0.21875 0.984375 0  0.25 0.984375 0  0.28125 0.984375 0  0.3125 0.984375 0  0.34375 0.984375 0  0.375 0.984375 0  0.40625 0.984375 0  0.4375 0.984375 0  0.46875 0.984375 0  0.5 0.984375 0  0.53125 0.984375 0  0.5625 0.984375 0  0.59375 0.984375 0  0.625 0.984375 0  0.65625 0.984375 0  0.6875 0.984375 0  0.71875 0.984375 0  0.75 0.984375 0  0.78125 0.984375 0  0.8125 0.984375 0  0.84375 0.984375 0  0.875 0.984375 0  0.90625 0.984375 0  0.9375 0.984375 0  0.96875 0.984375 0  1 0.984375 0  0.03125 1.03125 0  0 1.03125 0  0.0625 1.03125 0  0.09375 1.03125 0  0.125 1.03125 0  0.15625 1.03125 0  0.1875 1.03125 0  0.21875 1.03125 0  0.25 1.03125 0  0.28125 1.03125 0  0.3125 1.03125 0  0.34375 1.03125 0  0.375 1.03125 0  0.40625 1.03125 0  0.4375 1.03125 0  0.46875 1.03125 0  0.5 1.03125 0  0.53125 1.03125 0  0.5625 1.03125 0  0.59375 1.03125 0  0.625 1.03125 0  0.65625 1.03125 0  0.6875 1.03125 0  0.71875 1.03125 0  0.75 1.03125 0  0.78125 1.03125 0  0.8125 1.03125 0  0.84375 1.03125 0  0.875 1.03125 0  0.90625 1.03125 0  0.9375 1.03125 0  0.96875 1.03125 0  1 1.03125 0  0.03125 1.078125 0  0 1.078125 0  0.0625 1.078125 0  0.09375 1.078125 0  0.125 1.078125 0  0.15625 1.078125 0  0.1875 1.078125 0  0.21875 1.078125 0  0.25 1.078125 0  0.28125 1.078125 0  0.3125 1.078125 0  0.34375 1.078125 0  0.375 1.078125 0  0.40625 1.078125 0  0.4375 1.078125 0  0.46875 1.078125 0  0.5 1.078125 0  0.53125 1.078125 0  0.5625 1.078125 0  0.59375 1.078125 0  0.625 1.078125 0  0.65625 1.078125 0  0.6875 1.078125 0  0.71875 1.078125 0  0.75 1.078125 0  0.78125 1.078125 0  0.8125 1.078125 0  0.84375 1.078125 0  0.875 1.078125 0  0.90625 1.078125 0  0.9375 1.078125 0  0.96875 1.078125 0  1 1.078125 0  0.03125 1.125 0  0 1.125 0  0.0625 1.125 0  0.09375 1.125 0  0.125 1.125 0  0.15625 1.125 0  0.1875 1.125 0  0.21875 1.125 0  0.25 1.125 0  0.28125 1.125 0  0.3125 1.125 0  0.34375 1.125 0  0.375 1.125 0  0.40625 1.125 0  0.4375 1.125 0  0.46875 1.125 0  0.5 1.125 0  0.53125 1.125 0  0.5625 1.125 0  0.59375 1.125 0  0.625 1.125 0  0.65625 1.125 0  0.6875 1.125 0  0.71875 1.125 0  0.75 1.125 0  0.78125 1.125 0  0.8125 1.125 0  0.84375 1.125 0  0.875 1.125 0  0.90625 1.125 0  0.9375 1.125 0  0.96875 1.125 0  1 1.125 0  0.03125 1.171875 0  0 1.171875 0  0.0625 1.171875 0  0.09375 1.171875 0  0.125 1.171875 0  0.15625 1.171875 0  0.1875 1.171875 0  0.21875 1.171875 0  0.25 1.171875 0  0.28125 1.171875 0  0.3125 1.171875 0  0.34375 1.171875 0  0.375 1.171875 0  0.40625 1.171875 0  0.4375 1.171875 0  0.46875 1.171875 0  0.5 1.171875 0  0.53125 1.171875 0  0.5625 1.171875 0  0.59375 1.171875 0  0.625 1.171875 0  0.65625 1.171875 0  0.6875 1.171875 0  0.71875 1.171875 0  0.75 1.171875 0  0.78125 1.171875 0  0.8125 1.171875 0  0.84375 1.171875 0  0.875 1.171875 0  0.90625 1.171875 0  0.9375 1.171875 0  0.96875 1.171875 0  1 1.171875 0  0.03125 1.21875 0  0 1.21875 0  0.0625 1.21875 0  0.09375 1.21875 0  0.125 1.21875 0  0.15625 1.21875 0  0.1875 1.21875 0  0.21875 1.21875 0  0.25 1.21875 0  0.28125 1.21875 0  0.3125 1.21875 0  0.34375 1.21875 0  0.375 1.21875 0  0.40625 1.21875 0  0.4375 1.21875 0  0.46875 1.21875 0  0.5 1.21875 0  0.53125 1.21875 0  0.5
[...]
<PointData  Vectors="u"> 
<DataArray  type="Float64"  Name="u"  NumberOfComponents="3" format="ascii">1.4116402572389110e-02 7.1452964171839044e-04 0.0000000000000000e+00  1.6277596222236960e-02 3.9893953880968539e-03 0.0000000000000000e+00  1.7909145903099014e-02 4.2714879224006160e-03 0.0000000000000000e+00  1.5337467978308468e-02 9.3240338797045367e-04 0.0000000000000000e+00  1.5726480368066082e-02 7.2650171653392322e-03 0.0000000000000000e+00  1.7523750292837519e-02 7.8605028702526097e-03 0.0000000000000000e+00  1.4635501117882080e-02 1.0194595744361554e-02 0.0000000000000000e+00  1.6218956112108739e-02 1.1032494518554840e-02 0.0000000000000000e+00  1.3206365836350173e-02 1.2658698549199904e-02 0.0000000000000000e+00  1.4558908423858638e-02 1.3675997957588719e-02 0.0000000000000000e+00  1.1547068708634804e-02 1.4591624502751307e-02 0.0000000000000000e+00  1.2696880827193701e-02 1.5729456501452486e-02 0.0000000000000000e+00  9.7472983809054024e-03 1.5949097203423784e-02 0.0000000000000000e+00  1.0721974918782406e-02 1.7154518024124342e-02 0.0000000000000000e+00  7.8853447500180102e-03 1.6707073378890380e-02 0.0000000000000000e+00  8.7091875974947344e-03 1.7933218090421022e-02 0.0000000000000000e+00  6.0301723159100293e-03 1.6861456468754459e-02 0.0000000000000000e+00  6.7244922524957312e-03 1.8067043874703384e-02 0.0000000000000000e+00  4.2423896892787635e-03 1.6426879998066805e-02 0.0000000000000000e+00  4.8257599055943831e-03 1.7575805170183346e-02 0.0000000000000000e+00  2.5748490338199370e-03 1.5435082327571936e-02 0.0000000000000000e+00  3.0635729289979520e-03 1.6495999326500886e-02 0.0000000000000000e+00  1.0731520059865242e-03 1.3932956536606743e-02 0.0000000000000000e+00  1.4814294810733754e-03 1.4879004524112600e-02 0.0000000000000000e+00  -2.2398352566710178e-04 1.1980572617403949e-02 0.0000000000000000e+00  1.1630172852043370e-04 1.2789076369151232e-02 0.0000000000000000e+00  -1.2843373658254307e-03 9.6490989148690400e-03 0.0000000000000000e+00  -1.0012052489147890e-03 1.0301399861752139e-02 0.0000000000000000e+00  -2.0819647054913133e-03 7.0188119604792515e-03 0.0000000000000000e+00  -1.8465188293388464e-03 7.5000813086618986e-03 0.0000000000000000e+00  -2.5969913845566984e-03 4.1770723173713597e-03 0.0000000000000000e+00  -2.4010611678704679e-03 4.4762511618737510e-03 0.0000000000000000e+00  -2.8154924060861670e-03 1.2163849215065677e-03 0.0000000000000000e+00  -2.6520353437566144e-03 1.3261268763927196e-03 0.0000000000000000e+00  -2.7294284371267249e-03 -1.7675748253717764e-03 0.0000000000000000e+00  -2.5925287722671966e-03 -1.8508403967273455e-03 0.0000000000000000e+00  -2.3367055315251751e-03 -4.6779082333127456e-03 0.0000000000000000e+00  -2.2215445914599658e-03 -4.9538908388942898e-03 0.0000000000000000e+00  -1.6412667902613982e-03 -7.4185214888936911e-03 0.0000000000000000e+00  -1.5442393229542141e-03 -7.8828772133813646e-03 0.0000000000000000e+00  -6.5326492700347385e-04 -9.8961960850840764e-03 0.0000000000000000e+00  -5.7210948840109789e-04 -1.0540311251044474e-02 0.0000000000000000e+00  6.1070614702339089e-04 -1.2022794509863551e-02 0.0000000000000000e+00  6.7657754318405203e-04 -1.2833481317574575e-02 0.0000000000000000e+00  2.1273104626256529e-03 -1.3717552390671298e-02 0.0000000000000000e+00  2.1764358926818807e-03 -1.4676739724198484e-02 0.0000000000000000e+00  3.8662200473013938e-03 -1.4909531875675086e-02 0.0000000000000000e+00  3.8944695148311025e-03 -1.5993892381476978e-02 0.0000000000000000e+00  5.7898219314535546e-03 -1.5540150276679371e-02 0.0000000000000000e+00  5.7897038633682590e-03 -1.6720748314146643e-02 0.0000000000000000e+00  7.8529924993650212e-03 -1.5565817593438227e-02 0.0000000000000000e+00  7.8126758081003087e-03 -1.6807714977516056e-02 0.0000000000000000e+00  1.0002713541156331e-02 -1.4960569431519261e-02 0.0000000000000000e+00  9.9050450652720199e-03 -1.6222441409952760e-02 0.0000000000000000e+00  1.2176840162626618e-02 -1.3718708919684429e-02 0.0000000000000000e+00  1.1998426639451184e-02 -1.4952360512262149e-02 0.0000000000000000e+00  1.4298488224604373e-02 -1.1857515074318229e-02 0.0000000000000000e+00  1.4010394818361733e-02 -1.3007187233860396e-02 0.0000000000000000e+00  1.6249774243259546e-02 -9.4210549208030864e-03 0.0000000000000000e+00  1.5825468351277721e-02 -1.0421948336504843e-02 0.0000000000000000e+00  1.7752577862368685e-02 -6.4917819043300955e-03 0.0000000000000000e+00  1.7208733595813978e-02 -7.2655758548009599e-03 0.0000000000000000e+00  1.7927576209086953e-02 -3.2623590794975356e-03 0.0000000000000000e+00  1.7459893108994338e-02 -3.6937574221167016e-03 0.0000000000000000e+00  1.5189945340932735e-02 -3.0009061949980750e-04 0.0000000000000000e+00  1.4590422924041342e-02 -4.1159117909473844e-04 0.0000000000000000e+00  1.9809736993474835e-02 5.0661772257465688e-03 0.0000000000000000e+00  1.7169907839862959e-02 1.3983234271496073e-03 0.0000000000000000e+00  1.9303856440007636e-02 9.3118688985261554e-03 0.0000000000000000e+00  1.7925724650234568e-02 1.3011099743907181e-02 0.0000000000000000e+00  1.6157624710928457e-02 1.6036967388597712e-02 0.0000000000000000e+00  1.4168986833015769e-02 1.8340959184580220e-02 0.0000000000000000e+00  1.2062184709259093e-02 1.9898673522960854e-02 0.0000000000000000e+00  9.9185041372848309e-03 2.0705421594515709e-02 0.0000000000000000e+00  7.8080851642724231e-03 2.0775303494758011e-02 0.0000000000000000e+00  5.7924373045684955e-03 2.0139906477063197e-02 0.0000000000000000e+00  3.9246083793509148e-03 1.8846792261111689e-02 0.0000000000000000e+00  2.2501763959737690e-03 1.6957637394422586e-02 0.0000000000000000e+00  8.0730810975073613e-04 1.4546425634214462e-02 0.0000000000000000e+00  -3.7234815996824860e-04 1.1697472445961964e-02 0.0000000000000000e+00  -1.2637317674102783e-03 8.5036584236762858e-03 0.0000000000000000e+00  -1.8477146159349516e-03 5.0645482042473190e-03 0.0000000000000000e+00  -2.1112141527888082e-03 1.4847290570690448e-03 0.0000000000000000e+00  -2.0468983048031963e-03 -2.1279789366242686e-03 0.0000000000000000e+00  -1.6535181046960406e-03 -5.6641678377220717e-03 0.0000000000000000e+00  -9.3588886930570767e-04 -9.0146720368043665e-03 0.0000000000000000e+00  9.4558524940490556e-05 -1.2072367043237853e-02 0.0000000000000000e+00  1.4194910548996150e-03 -1.4734204849032883e-02 0.0000000000000000e+00  3.0128871178115206e-03 -1.6903314372401296e-02 0.0000000000000000e+00  4.8406516240848754e-03 -1.8491353871605505e-02 0.0000000000000000e+00  6.8597421393681917e-03 -1.9420941514344474e-02 0.0000000000000000e+00  9.0177592821484055e-03 -1.9628259430067123e-02 0.0000000000000000e+00  1.1252072634243418e-02 -1.9065611169764605e-02 0.0000000000000000e+00  1.3488744886613405e-02 -1.7703937818734344e-02 0.0000000000000000e+00  1.5637769583078796e-02 -1.5535155352996708e-02 0.0000000000000000e+00  1.7572051277314732e-02 -1.2575106965401088e-02 0.0000000000000000e+00  1.9028165772885065e-02 -8.8733623310097830e-03 0.0000000000000000e+00  1.9188202180389712e-02 -4.5895416124091372e-03 0.0000000000000000e+00  1.5681246730591573e-02 -8.5876884295574621e-04 0.0000000000000000e+00  2.2684894638761652e-02 6.0281202217608090e-03 0.0000000000000000e+00  1.9756187693281656e-02 1.8639414943414706e-03 0.0000000000000000e+00  2.2100837074056578e-02 1.1038769084574610e-02 0.0000000000000000e+00  2.0603353229154783e-02 1.5355444196515496e-02 0.0000000000000000e+00  1.8691579679983392e-02 1.8829870719800544e-02 0.0000000000000000e+00  1.6542528060177711e-02 2.1425985197996489e-02 0.0000000000000000e+00  1.4266163873526095e-02 2.3135530540474701e-02 0.0000000000000000e+00  1.1951685135863770e-02 2.3970062228436156e-02 0.0000000000000000e+00  9.6763484941215765e-03 2.3959176662396772e-02 0.0000000000000000e+00  7.5064891710735493e-03 2.3149094169614470e-02 0.0000000000000000e+00  5.4994514083092465e-03 2.1600954539537063e-02 0.0000000000000000e+00  3.7032115071284899e-03 1.9389074358023974e-02 0.0000000000000000e+00  2.1581708374985992e-03 1.6599027994453869e-02 0.0000000000000000e+00  8.9682991251893317e-04 1.3325952119408372e-02 0.0000000000000000e+00  -5.4678949841261383e-05 9.6727302708943131e-03 0.0000000000000000e+00  -6.7697042134299591e-04 5.7485238712800431e-03 0.0000000000000000e+00  -9.5624220836043670e-04 1.6671287986762037e-03 0.0000000000000000e+00  -8.8487048949928990e-04 -2.4543298415225312e-03 0.0000000000000000e+00  -4.6082283612767605e-04 -6.4969667790949603e-03 0.0000000000000000e+00  3.1152034089503754e-04 -1.0341488602207327e-02 0.0000000000000000e+00  1.4214360445634292e-03 -1.3869892242033577e-02 0.0000000000000000e+00  2.8506816494108128e-03 -1.6967107699907061e-02 0.0000000000000000e+00  4.5731712470271427e-03 -1.9523019889622777e-02 0.0000000000000000e+00  6.5536174854831106e-03 -2.1434564975229196e-02 0.0000000000000000e+00  8.7470545008660038e-03 -2.2608155316490065e-02 0.0000000000000000e+00  1.1097458471512995e-02 -2.2962180460555804e-02 0.0000000000000000e+00  1.3537294659223957e-02 -2.2429657433160222e-02 0.0000000000000000e+00  1.5985487903184808e-02 -2.0960797387756799e-02 0.0000000000000000e+00  1.8342395806473094e-02 -1.8525608950161934e-02 0.0000000000000000e+00  2.0464052537250439e-02 -1.5117523900277078e-02 0.0000000000000000e+00  2.2041981639059832e-02 -1.0767022058771791e-02 0.0000000000000000e+00  2.2093538392841831e-02 -5.6509288261366187e-03 0.0000000000000000e+00  1.7841474663395578e-02 -1.3598293529596417e-03 0.0000000000000000e+00  2.6554409371284872e-02 7.0926761136287202e-03 0.0000000000000000e+00  2.3140646409435667e-02 2.3477420951364611e-03 0.0000000000000000e+00  2.5920206509611635e-02 1.2945533057755868e-02 0.0000000000000000e+00  2.4291376298361696e-02 1.7936850919420863e-02 0.0000000000000000e+00  2.2217002264258191e-02 2.1897908844939511e-02 0.0000000000000000e+00  1.9887246585979935e-02 2.4806997542540333e-02 0.0000000000000000e+00  1.7422363651872854e-02 2.6674157678875654e-02 0.0000000000000000e+00  1.4920903211321657e-02 2.7529637048901091e-02 0.0000000000000000e+00  1.2466629715595876e-02 2.7421122020777414e-02 0.0000000000000000e+00  1.0132017172665099e-02 2.6411898227353705e-02 0.0000000000000000e+00  7.9775601017716656e-03 2.4578907213126958e-02 0.0000000000000000e+00  6.0544319119030573e-03 2.2010854885785247e-02 0.0000000000000000e+00  4.4036931051278138e-03 1.8806368439441872e-02 0.0000000000000000e+00  3.0591857998619396e-03 1.5072266045086909e-02 0.0000000000000000e+00  2.0465517902162307e-03 1.0922110052322043e-02 0.0000000000000000e+00  1.3858523335284038e-03 6.4747680374521686e-03 0.0000000000000000e+00  1.0904286733500854e-03 1.8533787262821930e-03 0.0000000000000000e+00  1.1688265645851698e-03 -2.8158809520619993e-03 0.0000000000000000e+00  1.6232901557985879e-03 -7.4046301932987994e-03 0.0000000000000000e+00  2.4508675635481814e-03 -1.1783530568304978e-02 0.0000000000000000e+00  3.6415680081848265e-03 -1.5823287649183761e-02 0.0000000000000000e+00  5.1785742958441287e-03 -1.9396181310975480e-02 0.0000000000000000e+00  7.0360813819789619e-03 -2.2377579221486556e-02 0.0000000000000000e+00  9.1790107549726153e-03 -2.4647969896569508e-02 0.0000000000000000e+00  1.1560784456803034e-02 -2.6095161876259401e-02 0.0000000000000000e+00  1.4122820560750744e-02 -2.6616869369229350e-02 0.0000000000000000e+00  1.6792575336398781e-02 -2.6123469313284138e-02 0.0000000000000000e+00  1.9482168775149140e-02 -2.4540927871677044e-02 0.0000000000000000e+00  2.2081281772665086e-02 -2.1813999768424928e-02 0.0000000000000000e+00  2.4426786206665555e-02 -1.7911168687000711e-02 0.0000000000000000e+00  2.6155297976158211e-02 -1.2843080535541210e-02 0.0000000000000000e+00  2.6081730720433065e-02 -6.8066074285807543e-03 0.0000000000000000e+00  2.0887048333711640e-02 -1.8581570497738333e-03 0.0000000000000000e+00  3.1464579745902721e-02 8.2557502038765936e-03 0.0000000000000000e+00  2.7365436629422001e-02 2.8712404516277388e-03 0.0000000000000000e+00  3.0807989849437674e-02 1.5022668602621962e-02 0.0000000000000000e+00  2.9043922333315642e-02 2.0740692066347072e-02 0.0000000000000000e+00  2.6801027997474459e-02 2.5220865981244827e-02 0.0000000000000000e+00  2.4288822949331084e-02 2.8457714390589202e-02 0.0000000000000000e+00  2.1639553048169995e-02 3.0482439205315466e-02 0.0000000000000000e+00  1.8959818267606648e-02 3.1346991532715480e-02 0.0000000000000000e+00  1.6340677791359587e-02 3.1120266330827016e-02 0.0000000000000000e+00  1.3858158666609114e-02 2.9885419878316385e-02 0.0000000000000000e+00  1.1576295803734222e-02 2.7737687282983255e-02 0.0000000000000000e+00  9.5462185647668309e-03 2.4782093414614525e-02 0.0000000000000000e+00  7.8100245936500905e-03 2.1131684788575064e-02 0.0000000000000000e+00  6.3995617392956271e-03 1.6905804223399400e-02 0.0000000000000000e+00  5.3406084003489477e-03 1.2228894584893887e-02 0.0000000000000000e+00  4.6510172576579118e-03 7.2294719079704457e-03 0.0000000000000000e+00  4.3447288445249230e-03 2.0393829073330643e-03 0.0000000000000000e+00  4.4292173475749159e-03 -3.2066658410257786e-03 0.0000000000000000e+00  4.9085379062225043e-03 -8.3716805483119855e-03 0.0000000000000000e+00  5.7803258188039563e-03 -1.3316681070476857e-02 0.0000000000000000e+00  7.0375182505358373e-03 -1.7901476952202868e-02 0.0000000000000000e+00  8.6649942594245032e-03 -2.1985336022532800e-02 0.0000000000000000e+00  1.0639895278591669e-02 -2.5428327148941499e-02 0.0000000000000000e+00  1.2928337804837847e-02 -2.8092835096184564e-02 0.0000000000000000e+00  1.5484859301752541e-02 -2.9845728474630268e-02 0.0000000000000000e+00  1.8249482709419951e-02 -3.0560921437702004e-02 0.0000000000000000e+00  2.1146870892046327e-02 -3.0122420960795631e-02 0.0000000000000000e+00  2.4082968372992102e-02 -2.8427814874120869e-02 0.0000000000000000e+00  2.6937503795978514e-02 -2.5392369142419127e-02 0.0000000000000000e+00  2.9525884960968432e-02 -2.0955740436057399e-02 0.0000000000000000e+00  3.1419715731605083e-02 -1.5105823447805072e-02 0.0000000000000000e+00  3.1186029095360439e-02 -8.0601167341468466e-03 0.0000000000000000e+00  2.4808132592046377e-02 -2.3729759705072300e-03 0.0000000000000000e+00  3.7508513362905754e-02 9.5177015463542777e-03 0.0000000000000000e+00  3.2504240377420585e-02 3.4512676943048888e-03 0.0000000000000000e+00  3.6862297822071267e-02 1.7266469384038266e-02 0.0000000000000000e+00  3.4968537659511224e-02 2.3757716132511392e-02 0.0000000000000000e+00  3.2565012209597261e-02 2.8781666943295443e-02 0.0000000000000000e+00  2.9887507924488719e-02 3.2352305064282626e-02 0.0000000000000000e+00  2.7080045621226029e-02 3.4525762996663850e-02 0.0000000000000000e+00  2.4257483854232008e-02 3.5379800592745002e-02 0.0000000000000000e+00  2.1515093964467092e-02 3.5008305673737854e-02 0.0000000000000000e+00  1.8931793917625298e-02 3.3517870562307941e-02 0.0000000000000000e+00  1.6570686364552615e-02 3.1024758086097136e-02 0.0000000000000000e+00  1.4482285958884986e-02 2.7652532624498873e-02 0.0000000000000000e+00  1.2704596357882519e-02 2.3529869219762595e-02 0.0000000000000000e+00  1.1267705297196940e-02 1.8789264840995218e-02 0.0000000000000000e+00  1.0192520003058923e-02 1.3565822835085430e-02 0.0000000000000000e+00  9.4960965594148589e-03 7.9969842612927361e-03 0.0000000000000000e+00  9.1888282308951359e-03 2.2221575140001560e-03 0.0000000000000000e+00  9.2796246989737350e-03 -3.6169248793301192e-03 0.0000000000000000e+00  9.7716495449166520e-03 -9.3760343832490108e-03 0.0000000000000000e+00  1.0666432091852814e-02 -1.4908046454781486e-02 0.0000000000000000e+00  1.1958980471459877e-02 -2.0062720490643421e-02 0.0000000000000000e+00  1.3639746891934401e-02 -2.4686871030289572e-02 0.0000000000000000e+00  1.5689769827945919e-02 -2.8624794242025443e-02 0.0000000000000000e+00  1.8080571694368535e-02 -3.1719537511774781e-02 0.0000000000000000e+00  2.0769935197124192e-02 -3.3814636892564059e-02 0.0000000000000000e+00  2.3700476293193933e-02 -3.4756804279917633e-02 0.0000000000000000e+00  2.6796366122316086e-02 -3.4399276153411845e-02 0.0000000000000000e+00  2.9960251711914486e-02 -3.2606039851323119e-02 0.0000000000000000e+00  3.3062790828363865e-02 -2.9257151429233651e-02 0.0000000000000000e+00  3.5896653663801646e-02 -2.4257542889701268e-02 0.0000000000000000e+00  3.7956711200616541e-02 -1.7567091556541608e-02 0.0000000000000000e+00  3.7509728608624712e-02 -9.4232445509411181e-03 0.0000000000000000e+00  2.9663594040411460e-02 -2.9289519615265870e-03 0.0000000000000000e+00  4.4816240203723053e-02 1.0874324049947433e-02 0.0000000000000000e+00  3.8657549524025205e-02 4.1014099992656644e-03 0.0000000000000000e+00  4.4222257722340293e-02 1.9664319450517265e-02 0.0000000000000000e+00  4.2214766230291204e-02 2.6963502965675137e-02 0.0000000000000000e+00  3.9674081724704782e-02 3.2541517197256578e-02 0.0000000000000000e+00  3.6868348152433124e-02 3.6436685246236389e-02 0.0000000000000000e+00  3.3954092727621780e-02 3.8735590957202505e-02 0.0000000000000000e+00  3.1052331864867378e-02 3.9547281980085752e-02 0.0000000000000000e+00  2.8260389568578317e-02 3.8995700644312778e-02 0.0000000000000000e+00  2.5655573264868239e-02 3.7215110506249052e-02 0.0000000000000000e+00  2.3297307854891796e-02 3.4346186577045405e-02 0.0000000000000000e+00  2.1229604277133263e-02 3.0533144833962508e-02 0.0000000000000000e+00  1.9484511683047212e-02 2.5921541627420761e-02 0.0000000000000000e+00  1.8083899893769306e-02 2.0656907023701345e-02 0.0000000000000000e+00  1.7043931226664585e-02 1.4884331861316838e-02 0.0000000000000000e+00  1.6374671103389627e-02 8.7483303775066114e-03 0.0000000000000000e+00  1.6085450848455914e-02 2.3938758645222435e-03 0.0000000000000000e+00  1.6181646950872371e-02 -4.0329653074055172e-03 0.0000000000000000e+00  1.6669878375261914e-02 -1.0383244141621686e-02 0.0000000000000000e+00  1.7552691926737057e-02 -1.6504194719488888e-02 0.0000000000000000e+00  1.8832421279630997e-02 -2.2237644846507781e-02 0.0000000000000000e+00  2.0504946737944344e-02 -2.7419269188489661e-02 0.0000000000000000e+00  2.2560816930671614e-02 -3.1878189953461471e-02 0.0000000000000000e+00  2.4979486803307697e-02 -3.5437267327615027e-02 0.0000000000000000e+00  2.7727702553792258e-02 -3.7914665595657350e-02 0.0000000000000000e+00  3.0754735662126994e-02 -3.9126164795395595e-02 0.0000000000000000e+00  3.3989354409620420e-02 -3.8889086640513888e-02 0.0000000000000000e+00  3.7334591542489616e-02 -3.7027208496318305e-02 0.0000000000000000e+00  4.0654764502573701e-02 -3.3377684950073601e-02 0.0000000000000000e+00  4.3718829326690453e-02 -2.7802342208984563e-02 0.0000000000000000e+00  4.5932245928844019e-02 -2.0224971381908825e-02 0.0000000000000000e+00  4.5200846370893499e-02 -1.0900616183267658e-02 0.0000000000000000e+00  3.5551873234299106e-02 -3.5458897140383965e-03 0.0000000000000000e+00  5.3548278791637184e-02 1.2315022025897064e-02 0.0000000000000000e+00  4.5947408869778425e-02 4.8334415296658328e-03 0.0000000000000000e+00  5.3059469938817744e-02 2.2190256158106113e-02 0.0000000000000000e+00  5.0966342437069399e-02 3.0312398247435333e-02 0.0000000000000000e+00  4.8329608785488407e-02 3.6432150169477727e-02 0.0000000000000000e+00  4.5456506121078974e-02 4.0619380128724167e-02 0.0000000000000000e+00  4.2516023519984361e-02 4.2999122467447630e-02 0.0000000000000000e+00  3.9632631932411309e-02 4.3719131619450485e-02 0.0000000000000000e+00  3.6901452612673628e-02 4.2940139792343790e-02 0.0000000000000000e+00  3.4393175746376729e-02 4.0829292615021086e-02 0.0000000000000000e+00  3.2157463150166134e-02 3.7555596663177725e-02 0.0000000000000000e+00  3.0226759253808553e-02 3.3286091258803246e-02 0.0000000000000000e+00  2.8620475930209825e-02 2.8183918446757317e-02 0.0000000000000000e+00  2.7349005471762326e-02 2.2407017919844244e-02 0.0000000000000000e+00  2.6417132047968857e-02 1.6108402184975563e-02 0.0000000000000000e+00  2.5827598345494394e-02 9.4370714518275407e-03 0.0000000000000000e+00  2.5582620052281315e-02 2.5396341799458896e-03 0.0000000000000000e+00  2.5686973088843594e-02 -4.4371284543191659e-03 0.0000000000000000e+00  