<?xml version="1.0"?>
<VTKFile type="UnstructuredGrid"  version="0.1"  >
<UnstructuredGrid>
<Piece  NumberOfPoints="825" NumberOfCells="1536">
<Points>
<DataArray  type="Float64"  NumberOfComponents="3"  format="ascii">8.771301092237205e-23 0.5 0  0.06249998698488585 0.5000002953315756 0  0.06249960378798609 0.5625003314949265 0  -3.860196254622481e-07 0.5625000262174051 0  0.1249999424092468 0.5000005705253081 0  0.1249995698073929 0.5625005788868508 0  0.1874998624506562 0.5000008073148935 0  0.1874995088242233 0.5625007938218363 0  0.2499997520135805 0.5000010287110495 0  0.2499994207128177 0.5625009775108301 0  0.3124996006628974 0.5000011928868794 0  0.3124993039327211 0.5625011168772506 0  0.3749993965078044 0.5000012844111094 0  0.3749991551576208 0.5625011966067487 0  0.437499127617003 0.5000012782094916 0  0.4374989734009536 0.5625012061368027 0  0.4999988116840751 0.5000011907633297 0  0.4999987636634787 0.5625011487392971 0  0.5624984837378636 0.500001053377555 0  0.5624985385584785 0.5625010401260228 0  0.6249981734941606 0.5000008886686362 0  0.6249983131855369 0.5625008991045923 0  0.6874978954700168 0.5000007201625862 0  0.6874981005933629 0.5625007401207034 0  0.7499976503907055 0.5000005411232938 0  0.7499979092666181 0.5625005692658884 0  0.812497441954409 0.5000003530167344 0  0.8124977441534479 0.5625003915372585 0  0.8749972784822215 0.5000001730385306 0  0.8749976092204921 0.5625002134495075 0  0.9374971587603411 0.4999999974040121 0  0.9374975072633901 0.5625000393458094 0  0.9999970872142895 0.49999983794771 0  0.999997440248757 0.5624998718418538 0  1.062497055800305 0.4999996786961249 0  1.062497408050066 0.562499706816417 0  1.124997054612116 0.4999994983480723 0  1.124997407192072 0.5624995438470225 0  1.187497107033297 0.4999993595584164 0  1.187497438446107 0.5624993948228783 0  1.249997197314982 0.4999992276077907 0  1.249997502469165 0.5624992588220207 0  1.312497315935682 0.4999990892236646 0  1.312497594411599 0.5624991364700661 0  1.37499748319751 0.4999990047229479 0  1.374997713445004 0.5624990403519112 0  1.437497681459203 0.4999989405335401 0  1.437497858245021 0.5624989701192634 0  1.499997899943767 0.4999988835841697 0  1.499998021507883 0.5624989280648646 0  1.562498155886602 0.4999989027498381 0  1.562498200112052 0.5624989296326579 0  1.624998427506844 0.4999989694578255 0  1.624998391481655 0.5624989746941881 0  1.687498701205056 0.4999990625972527 0  1.687498587465858 0.5624990588007246 0  1.749998991086175 0.4999992280261158 0  1.749998782795038 0.5624991847508017 0  1.812499272763371 0.4999994163496896 0  1.812498970634206 0.5624993410960681 0  1.874999529606117 0.4999995987465641 0  1.874999136586732 0.5624995198914529 0  1.937499772304883 0.4999998092007915 0  1.937499262206819 0.5624997409027513 0  2 0.5 0  1.999999300921193 0.5625001282840912 0  0.06249930093798713 0.6250003833917528 0  -6.963940722851332e-07 0.6250001347196498 0  0.1249992810153984 0.6250005978385015 0  0.1874992400436435 0.6250007835830512 0  0.2499991780350795 0.6250009388768915 0  0.312499095365535 0.6250010556224234 0  0.3749989917037018 0.6250011236424912 0  0.4374988671353945 0.6250011361881895 0  0.4999987238152785 0.625001094018618 0  0.5624985673524179 0.6250010057526795 0  0.6249984060263044 0.6250008837120373 0  0.68749824877168 0.6250007390435198 0  0.749998103041205 0.6250005796192426 0  0.812497974123191 0.6250004114270428 0  0.8749978660036734 0.6250002398818504 0  0.9374977817358333 0.6250000693041784 0  0.9999977234540255 0.6249999020381509 0  1.062497691726585 0.62499973853984 0  1.124997685270498 0.6249995807129692 0  1.187497703489673 0.6249994330219344 0  1.249997745870136 0.6249992985370634 0  1.312497809915805 0.6249991803880572 0  1.374997893577429 0.6249990838592899 0  1.437497994593937 0.6249990126858707 0  1.499998108616865 0.624998970914675 0  1.562498232128677 0.6249989644519137 0  1.624998362052705 0.6249989955730608 0  1.687498493182772 0.624999063275842 0  1.749998619785741 0.6249991659401999 0  1.81249873428873 0.6249992997996464 0  1.874998824198934 0.6249994649691946 0  1.93749887405563 0.6249996779690118 0  1.999998882684247 0.6249999658769437 0  0.06249907728885248 0.6875004476978834 0  -9.216921076274332e-07 0.6875002602815038 0  0.1249990665330299 0.687500622424102 0  0.1874990416056114 0.6875007768781721 0  0.2499990015563886 0.6875009055153046 0  0.312498946619347 0.687501001309255 0  0.3749988769972069 0.6875010570029513 0  0.4374987929359729 0.6875010678188046 0  0.4999986955344663 0.6875010336590034 0  0.5624985876310785 0.6875009593850698 0  0.624998473910233 0.6875008529184704 0  0.6874983600767648 0.6875007226209801 0  0.7499982516508533 0.6875005757272937 0  0.8124981532445664 0.6875004182461786 0  0.8749980685448256 0.6875002552781363 0  0.9374980004285073 0.6875000909378877 0  0.9999979508822655 0.6874999281491362 0  1.062497920724321 0.687499769045993 0  1.124997909688698 0.6874996161297848 0  1.187497917167103 0.6874994726421395 0  1.249997942226142 0.6874993418708037 0  1.312497983199884 0.6874992272654711 0  1.374998038116001 0.6874991327103427 0  1.43749810464152 0.6874990619260828 0  1.499998179800519 0.6874990185689303 0  1.562498260613322 0.6874990060613764 0  1.624998344026529 0.68749902618653 0  1.68749842613781 0.6874990787662641 0  1.749998502119364 0.6874991623440032 0  1.812498565847867 0.6874992749544382 0  1.874998610020968 0.6874994163491791 0  1.937498630208516 0.6874995883684932 0  1.999998633381358 0.6874997799122338 0  0.06249892141866491 0.7500005170612473 0  -1.078177842623606e-06 0.7500003833832155 0  0.1249989159573883 0.750000651548777 0  0.1874989020431531 0.7500007744643508 0  0.2499988781799707 0.7500008775487604 0  0.3124988439873365 0.7500009537573599 0  0.3749987993918631 0.7500009971199671 0  0.4374987444431405 0.7500010038297988 0  0.4999986796664345 0.7500009732926615 0  0.5624986065725487 0.7500009082648867 0  0.6249985278600179 0.7500008139121006 0  0.6874984471065226 0.7500006963833475 0  0.7499983681529383 0.7500005617087748 0  0.8124982945800137 0.7500004153328272 0  0.8749982294633982 0.7500002620090674 0  0.9374981752731483 0.7500001057423744 0  0.9999981337567255 0.7499999497969906 0  1.062498105819484 0.7499997969679686 0  1.12499809158939 0.749999650049348 0  1.187498090667822 0.7499995120575926 0  1.249998102228179 0.7499993861439067 0  1.312498124994167 0.7499992755685359 0  1.374998157342277 0.7499991836709016 0  1.43749819734452 0.7499991136827369 0  1.499998242790753 0.749999068560003 0  1.562498291347557 0.7499990506547477 0  1.624998340523694 0.7499990611684373 0  1.687498387431366 0.7499990998975443 0  1.74999842870775 0.7499991653793174 0  1.8124984607073 0.7499992551786167 0  1.874998480501444 0.7499993657788711 0  1.937498488338007 0.7499994898083159 0  1.999998489546481 0.7499996073445311 0  0.06249881956055252 0.812500585562709 0  -1.18035551872262e-06 0.8125004963900899 0  0.1249988171786354 0.8125006832150663 0  0.1874988103268965 0.8125007761740191 0  0.2499987975296563 0.8125008551377614 0  0.312498777994119 0.8125009129617715 0  0.3749987512719796 0.8125009442188587 0  0.4374987171193509 0.8125009455071722 0  0.4999986756466739 0.8125009158587922 0  0.5624986275934414 0.8125008567494587 0  0.6249985744826326 0.8125007715736127 0  0.6874985185149611 0.8125006648201559 0  0.7499984622597218 0.8125005413173669 0  0.8124984083151453 0.812500405751806 0  0.874998359056487 0.8125002624288389 0  0.9374983164678737 0.8125001151714616 0  0.999998282014204 0.8124999673316444 0  1.062498256561289 0.8124998219348356 0  1.124998240394414 0.8124996818936528 0  1.187498233316899 0.812499550143947 0  1.249998234732671 0.8124994296618423 0  1.312498243699147 0.8124993234330542 0  1.374998258993781 0.8124992343797131 0  1.437498279175568 0.8124991652222391 0  1.499998302646883 0.8124991182863984 0  1.56249832772161 0.8124990952278816 0  1.624998352631381 0.8124990967104132 0  1.687498375492654 0.8124991221721901 0  1.749998394381365 0.8124991696924792 0  1.812498407667842 0.8124992357437956 0  1.874998414753782 0.812499314304736 0  1.937498416962417 0.8124993945052869 0  1.999998417283872 0.8124994566267685 0  0.0624987597281068 0.8750006496805401 0  -1.240360693124569e-06 0.8750005963097375 0  0.1249987591174448 0.8750007154019523 0  0.1874987566077337 0.8750007812352225 0  0.2499987510029409 0.8750008380011175 0  0.312498741376185 0.8750008787235186 0  0.3749987270332839 0.8750008982867956 0  0.4374987074813368 0.8750008934502453 0  0.4999986825150481 0.8750008629487437 0  0.5624986523699839 0.8750008074219539 0  0.6249986178251667 0.8750007290780187 0  0.6874985801722048 0.8750006311796391 0  0.7499985410576208 0.8750005175231949 0  0.8124985022700145 0.8750003920358931 0  0.8749984655400213 0.8750002585201928 0  0.9374984323790817 0.8750001205222483 0  0.9999984039588296 0.8749999813029401 0  1.06249838103958 0.8749998438931191 0  1.124998363960722 0.8749997111879638 0  1.18749835268105 0.874999586017556 0  1.249998346835479 0.874999471162988 0  1.312498345792682 0.8749993693239639 0  1.374998348716417 0.8749992830410019 0  1.43749835462799 0.8749992145688245 0  1.499998362468134 0.8749991656999083 0  1.562498371152521 0.8749991375392224 0  1.624998379610456 0.8749991302534812 0  1.687498386831495 0.8749991428262915 0  1.749998391984633 0.8749991727870459 0  1.812498394662896 0.8749992157682501 0  1.874998395204506 0.8749992646497995 0  1.937498394783008 0.8749993081617515 0  1.999998394711195 0.8749993292929159 0  0.06249873216013347 0.9375007076197235 0  -1.268017791658168e-06 0.9375006825370129 0  0.1249987325304798 0.9375007465437536 0  0.1874987325767315 0.9375007886472804 0  0.2499987314401508 0.9375008255013929 0  0.3124987282410852 0.9375008505734338 0  0.374998722189114 0.9375008590543833 0  0.4374987126362752 0.9375008478082322 0  0.4999986991562982 0.9375008153540419 0  0.5624986816449138 0.937500761763944 0  0.6249986603907675 0.9375006884236805 0  0.6874986360727504 0.937500597688
[...]
<PointData  Vectors="u"> 
<DataArray  type="Float64"  Name="u"  NumberOfComponents="3" format="ascii">-2.1467760782693305e-24 2.5907181859643263e-22 0.0000000000000000e+00  -2.1373165700666159e-07 3.4099223223193467e-06 0.0000000000000000e+00  5.1266502520294437e-04 8.1609140558396652e-05 0.0000000000000000e+00  0.0000000000000000e+00 0.0000000000000000e+00 0.0000000000000000e+00  -7.7977697390383915e-07 6.6684753617501634e-06 0.0000000000000000e+00  5.5371812635655003e-04 1.2733461724429124e-04 0.0000000000000000e+00  -1.8536945246358998e-06 8.8142784283656605e-06 0.0000000000000000e+00  4.5384129204767870e-04 1.4234343245036779e-04 0.0000000000000000e+00  -2.9463345576948736e-06 1.1205829514108856e-05 0.0000000000000000e+00  3.2819490860920352e-04 1.4379184068312060e-04 0.0000000000000000e+00  -4.5322998946607336e-06 1.2633454841398760e-05 0.0000000000000000e+00  1.9829192386315757e-04 1.3860097359479217e-04 0.0000000000000000e+00  -7.0234605725104351e-06 1.2571878923403143e-05 0.0000000000000000e+00  7.1469592387990661e-05 1.2958604118058580e-04 0.0000000000000000e+00  -1.0097774759189772e-05 1.1499123097422891e-05 0.0000000000000000e+00  -4.8099636968792620e-05 1.1820113284729805e-04 0.0000000000000000e+00  -1.3489106759721381e-05 9.6972229365360315e-06 0.0000000000000000e+00  -1.5778660077539296e-04 1.0545524841998371e-04 0.0000000000000000e+00  -1.6574001750323056e-05 8.0564691546721227e-06 0.0000000000000000e+00  -2.5582713655336766e-04 9.2032497296267197e-05 0.0000000000000000e+00  -1.9469373142332275e-05 6.1740886983049431e-06 0.0000000000000000e+00  -3.4119223854396126e-04 7.8399805507494899e-05 0.0000000000000000e+00  -2.1746636132804139e-05 4.7977574575828664e-06 0.0000000000000000e+00  -4.1334276425274098e-04 6.4922202873357381e-05 0.0000000000000000e+00  -2.3529325311379815e-05 3.7392203073702015e-06 0.0000000000000000e+00  -4.7206558090884379e-04 5.1725986665786017e-05 0.0000000000000000e+00  -2.5169966443567822e-05 2.4050239225733062e-06 0.0000000000000000e+00  -5.1742373742314700e-04 3.8796431834516150e-05 0.0000000000000000e+00  -2.6352218128608025e-05 1.3860413556276856e-06 0.0000000000000000e+00  -5.4955499864182467e-04 2.6162852119744897e-05 0.0000000000000000e+00  -2.7281709368237187e-05 4.0100359365533490e-07 0.0000000000000000e+00  -5.6859639198336167e-04 1.3795437372140035e-05 0.0000000000000000e+00  -2.7892204582020365e-05 -3.4800030175151487e-07 0.0000000000000000e+00  -5.7464607028501191e-04 1.6230464705134135e-06 0.0000000000000000e+00  -2.7925122113068576e-05 -5.4826293979605102e-07 0.0000000000000000e+00  -5.6773855709051253e-04 -1.0583328650500643e-05 0.0000000000000000e+00  -2.8593989720000740e-05 -2.3965495318626095e-06 0.0000000000000000e+00  -5.4788086335917435e-04 -2.3075699914481345e-05 0.0000000000000000e+00  -2.8326431427339603e-05 -3.1765014893792088e-06 0.0000000000000000e+00  -5.1493393802275645e-04 -3.5834116081205347e-05 0.0000000000000000e+00  -2.7665680083928477e-05 -3.6500125030165463e-06 0.0000000000000000e+00  -4.6876047835835236e-04 -4.8966104443706063e-05 0.0000000000000000e+00  -2.7558981761329621e-05 -5.6725986580271759e-06 0.0000000000000000e+00  -4.0933588748106616e-04 -6.2627648620922633e-05 0.0000000000000000e+00  -2.6510793581047242e-05 -6.6279175538839129e-06 0.0000000000000000e+00  -3.3656465099390155e-04 -7.6643701510299616e-05 0.0000000000000000e+00  -2.5043897529904819e-05 -7.2515087904054059e-06 0.0000000000000000e+00  -2.5059526181729207e-04 -9.0926257481028743e-05 0.0000000000000000e+00  -2.4094411052880227e-05 -9.4437303117432996e-06 0.0000000000000000e+00  -1.5194900924398288e-04 -1.0534800076346768e-04 0.0000000000000000e+00  -2.2139019963763477e-05 -1.0331959652508292e-05 0.0000000000000000e+00  -4.1367465512312602e-05 -1.1932180549571112e-04 0.0000000000000000e+00  -1.9743108727942754e-05 -1.0351860879763698e-05 0.0000000000000000e+00  7.9848033660476599e-05 -1.3218537783354309e-04 0.0000000000000000e+00  -1.7875820582518443e-05 -1.1296955475438932e-05 0.0000000000000000e+00  2.0963990537712257e-04 -1.4295404359592360e-04 0.0000000000000000e+00  -1.4998499621257111e-05 -1.0509543969391269e-05 0.0000000000000000e+00  3.4492517148790081e-04 -1.4942448729885708e-04 0.0000000000000000e+00  -1.1664141357131801e-05 -8.7218876415628388e-06 0.0000000000000000e+00  4.7881446025482187e-04 -1.4732814995515705e-04 0.0000000000000000e+00  -8.8633114614466653e-06 -7.7376001115660758e-06 0.0000000000000000e+00  5.8700521890773800e-04 -1.2754460887319443e-04 0.0000000000000000e+00  -5.0544606193649510e-06 -4.7583197986393454e-06 0.0000000000000000e+00  5.6138083893860456e-04 -7.2744855789014991e-05 0.0000000000000000e+00  -3.3091423819244148e-22 3.3246383774660488e-22 0.0000000000000000e+00  0.0000000000000000e+00 0.0000000000000000e+00 0.0000000000000000e+00  7.3236818025108918e-04 1.4746734055409383e-04 0.0000000000000000e+00  0.0000000000000000e+00 0.0000000000000000e+00 0.0000000000000000e+00  7.7886530632383241e-04 2.4630535185663752e-04 0.0000000000000000e+00  6.6711035149634153e-04 2.9110558453130194e-04 0.0000000000000000e+00  5.0430251802753058e-04 3.0508435736177820e-04 0.0000000000000000e+00  3.2398861769423483e-04 3.0121713929716170e-04 0.0000000000000000e+00  1.4073243035156224e-04 2.8643539115700585e-04 0.0000000000000000e+00  -3.6940497904962040e-05 2.6472614046761330e-04 0.0000000000000000e+00  -2.0329063022921963e-04 2.3866066502629168e-04 0.0000000000000000e+00  -3.5438097366252214e-04 2.0999488536395397e-04 0.0000000000000000e+00  -4.8761558627108626e-04 1.7996796130425889e-04 0.0000000000000000e+00  -6.0139346204776331e-04 1.4944273969258026e-04 0.0000000000000000e+00  -6.9480128237769446e-04 1.1895219028875027e-04 0.0000000000000000e+00  -7.6741118783178015e-04 8.8769210785158306e-05 0.0000000000000000e+00  -8.1910484274561783e-04 5.8991133267147045e-05 0.0000000000000000e+00  -8.4990312781617013e-04 2.9580867058741067e-05 0.0000000000000000e+00  -8.5985804149844121e-04 3.9508844437622868e-07 0.0000000000000000e+00  -8.4898905655645318e-04 -2.8790138054699482e-05 0.0000000000000000e+00  -8.1728712283826244e-04 -5.8218467029391313e-05 0.0000000000000000e+00  -7.6476067931835283e-04 -8.8062824308248190e-05 0.0000000000000000e+00  -6.9145835915193936e-04 -1.1838678639421352e-04 0.0000000000000000e+00  -5.9754741133741707e-04 -1.4911457290223796e-04 0.0000000000000000e+00  -4.8348066537508164e-04 -1.7997335705064973e-04 0.0000000000000000e+00  -3.5014874712834730e-04 -2.1043333885980962e-04 0.0000000000000000e+00  -1.9906467909441321e-04 -2.3964673620250368e-04 0.0000000000000000e+00  -3.2609511040187787e-05 -2.6633339545866820e-04 0.0000000000000000e+00  1.4575386626256644e-04 -2.8859767257601135e-04 0.0000000000000000e+00  3.3119357458222753e-04 -3.0357706190416693e-04 0.0000000000000000e+00  5.1676320960844253e-04 -3.0665994656036035e-04 0.0000000000000000e+00  6.9021639715870252e-04 -2.8998241714466602e-04 0.0000000000000000e+00  8.1702200586356466e-04 -2.4012916812131302e-04 0.0000000000000000e+00  7.5759649251103947e-04 -1.3827847239539589e-04 0.0000000000000000e+00  0.0000000000000000e+00 0.0000000000000000e+00 0.0000000000000000e+00  8.3726559494239137e-04 2.0508720603596656e-04 0.0000000000000000e+00  0.0000000000000000e+00 0.0000000000000000e+00 0.0000000000000000e+00  9.0821357244841641e-04 3.5962674278318580e-04 0.0000000000000000e+00  7.8931652899968507e-04 4.4677918736159397e-04 0.0000000000000000e+00  6.1212793871296160e-04 4.8624020298203161e-04 0.0000000000000000e+00  4.1057288282617246e-04 4.9353122168003985e-04 0.0000000000000000e+00  2.0028032413412181e-04 4.7897198019397136e-04 0.0000000000000000e+00  -7.9388329561556718e-06 4.4950528319677847e-04 0.0000000000000000e+00  -2.0611660897286490e-04 4.1001047740428699e-04 0.0000000000000000e+00  -3.8845214842773388e-04 3.6401217791535599e-04 0.0000000000000000e+00  -5.5088852488573831e-04 3.1407607819953793e-04 0.0000000000000000e+00  -6.9072541989013611e-04 2.6203552285765158e-04 0.0000000000000000e+00  -8.0626165613322193e-04 2.0912470388594130e-04 0.0000000000000000e+00  -8.9652036454367480e-04 1.5609534869647737e-04 0.0000000000000000e+00  -9.6101626165535318e-04 1.0332015265294426e-04 0.0000000000000000e+00  -9.9954838129146504e-04 5.0887766777461528e-05 0.0000000000000000e+00  -1.0120552674186198e-03 -1.3056655652360615e-06 0.0000000000000000e+00  -9.9853464371061859e-04 -5.3470218941625112e-05 0.0000000000000000e+00  -9.5902614530566786e-04 -1.0582531706237903e-04 0.0000000000000000e+00  -8.9365556181734453e-04 -1.5850036221728327e-04 0.0000000000000000e+00  -8.0269073127104773e-04 -2.1142344623612284e-04 0.0000000000000000e+00  -6.8666308506566318e-04 -2.6421872964833593e-04 0.0000000000000000e+00  -5.4656609457770272e-04 -3.1613397750698038e-04 0.0000000000000000e+00  -3.8406289964270144e-04 -3.6592247933871290e-04 0.0000000000000000e+00  -2.0173504249370393e-04 -4.1170848886901016e-04 0.0000000000000000e+00  -3.3720521343142637e-06 -4.5084748856449966e-04 0.0000000000000000e+00  2.0578475348526266e-04 -4.7966015514100619e-04 0.0000000000000000e+00  4.1879346281443634e-04 -4.9300094644282933e-04 0.0000000000000000e+00  6.2641752487567503e-04 -4.8358617249643271e-04 0.0000000000000000e+00  8.1406649640754268e-04 -4.4097293788734069e-04 0.0000000000000000e+00  9.4388784536368067e-04 -3.5075230295731133e-04 0.0000000000000000e+00  8.6404724926450016e-04 -1.9754440847291033e-04 0.0000000000000000e+00  0.0000000000000000e+00 0.0000000000000000e+00 0.0000000000000000e+00  9.2478438434358018e-04 2.6367346577875483e-04 0.0000000000000000e+00  0.0000000000000000e+00 0.0000000000000000e+00 0.0000000000000000e+00  1.0090675129267922e-03 4.7265117730656996e-04 0.0000000000000000e+00  8.8541509555033887e-04 6.0609945027956550e-04 0.0000000000000000e+00  7.0034502287778203e-04 6.7770691971216985e-04 0.0000000000000000e+00  4.8836374763996688e-04 7.0261591952962873e-04 0.0000000000000000e+00  2.6491102310382403e-04 6.9312837394860200e-04 0.0000000000000000e+00  4.1171388673971584e-05 6.5875442560481019e-04 0.0000000000000000e+00  -1.7395149959839229e-04 6.0680327673998937e-04 0.0000000000000000e+00  -3.7358421992241914e-04 5.4287592281712530e-04 0.0000000000000000e+00  -5.5269143278011883e-04 4.7121120815422392e-04 0.0000000000000000e+00  -7.0776225617847916e-04 3.9493238761692610e-04 0.0000000000000000e+00  -8.3647169158100176e-04 3.1623139530844547e-04 0.0000000000000000e+00  -9.3738804321825237e-04 2.3653125289825426e-04 0.0000000000000000e+00  -1.0097069361420269e-03 1.5664041791973996e-04 0.0000000000000000e+00  -1.0530219560158992e-03 7.6903522515188986e-05 0.0000000000000000e+00  -1.0671606839959586e-03 -2.6466470837566774e-06 0.0000000000000000e+00  -1.0520895046469685e-03 -8.2137409428350926e-05 0.0000000000000000e+00  -1.0078876198822927e-03 -1.6170204775479706e-04 0.0000000000000000e+00  -9.3477871993647820e-04 -2.4132255826418738e-04 0.0000000000000000e+00  -8.3321842342788514e-04 -3.2066668092998394e-04 0.0000000000000000e+00  -7.0403817048577137e-04 -3.9892812555841132e-04 0.0000000000000000e+00  -5.4865882066397443e-04 -4.7468039418105997e-04 0.0000000000000000e+00  -3.6933454420404730e-04 -5.4571728523577199e-04 0.0000000000000000e+00  -1.6941594843995590e-04 -6.0887770281528651e-04 0.0000000000000000e+00  4.6377292047990758e-05 -6.5985652085251987e-04 0.0000000000000000e+00  2.7175550437812552e-04 -6.9295135931296450e-04 0.0000000000000000e+00  4.9874871136145729e-04 -7.0072426918827227e-04 0.0000000000000000e+00  7.1734954423310687e-04 -6.7360310562132066e-04 0.0000000000000000e+00  9.1254883091983761e-04 -5.9955563122746417e-04 0.0000000000000000e+00  1.0450939098573307e-03 -4.6451900163383428e-04 0.0000000000000000e+00  9.5167922342880430e-04 -2.5664571639252598e-04 0.0000000000000000e+00  0.0000000000000000e+00 0.0000000000000000e+00 0.0000000000000000e+00  1.0143148562070030e-03 3.2500801150526810e-04 0.0000000000000000e+00  0.0000000000000000e+00 0.0000000000000000e+00 0.0000000000000000e+00  1.1100424484356732e-03 5.8902942613658948e-04 0.0000000000000000e+00  9.8308783640688115e-04 7.6876706477398517e-04 0.0000000000000000e+00  7.9349516154081541e-04 8.7415864444576876e-04 0.0000000000000000e+00  5.7741788848965619e-04 9.1924989538086680e-04 0.0000000000000000e+00  3.4952695035055765e-04 9.1734934242839589e-04 0.0000000000000000e+00  1.2054735460362685e-04 8.7994040118472472e-04 0.0000000000000000e+00  -1.0060538611809860e-04 8.1653946065931324e-04 0.0000000000000000e+00  -3.0675803309078258e-04 7.3482173569649979e-04 0.0000000000000000e+00  -4.9246527777078704e-04 6.4080944900604989e-04 0.0000000000000000e+00  -6.5380912492290057e-04 5.3906590218910839e-04 0.0000000000000000e+00  -7.8811593776230285e-04 4.3288714982377775e-04 0.0000000000000000e+00  -8.9368187594814953e-04 3.2449649653805976e-04 0.0000000000000000e+00  -9.6950389079256236e-04 2.1524568484912406e-04 0.0000000000000000e+00  -1.0150421236422489e-03 1.0582426387862343e-04 0.0000000000000000e+00  -1.0300475122808168e-03 -3.5253849878881568e-06 0.0000000000000000e+00  -1.0144610494551710e-03 -1.1278880670425508e-04 0.0000000000000000e+00  -9.6837802159218181e-04 -2.2195643731273503e-04 0.0000000000000000e+00  -8.9208208794989724e-04 -3.3079942826708548e-04 0.0000000000000000e+00  -7.8613521094735440e-04 -4.3864450621012853e-04 0.0000000000000000e+00  -6.5154110627644842e-04 -5.4415356281214316e-04 0.0000000000000000e+00  -4.8996091297998589e-04 -6.4511309308068780e-04 0.0000000000000000e+00  -3.0395979815470554e-04 -7.3822902236995059e-04 0.0000000000000000e+00  -9.7260725669265496e-05 -8.1892677091378657e-04 0.0000000000000000e+00  1.2502783177127395e-04 -8.8115870022131935e-04 0.0000000000000000e+00  3.5629417846684888e-04 -9.1721446493096207e-04 0.0000000000000000e+00  5.8844796840087379e-04 -9.1755247191478348e-04 0.0000000000000000e+00  8.1169602581808420e-04 -8.7073050181271953e-04 0.0000000000000000e+00  1.0113900086809137e-03 -7.6363397457629759e-04 0.0000000000000000e+00  1.1467377851582825e-03 -5.8258565240753635e-04 0.0000000000000000e+00  1.0406546342488902e-03 -3.1803806117349062e-04 0.0000000000000000e+00  0.0000000000000000e+00 0.0000000000000000e+00 0.0000000000000000e+00  1.1137764551433899e-03 3.8854684162281682e-04 0.0000000000000000e+00  0.0000000000000000e+00 0.0000000000000000e+00 0.0000000000000000e+00  1.2241968777794664e-03 7.0823458887017579e-04 0.0000000000000000e+00  1.0969519526509506e-03 9.3295607190082641e-04 0.0000000000000000e+00  9.0717837729929751e-04 1.0711183121028423e-03 0.0000000000000000e+00  6.9292029227962701e-04 1.1362502523306920e-03 0.0000000000000000e+00  4.6815195859698059e-04 1.1424230474222140e-03 0.0000000000000000e+00  2.4272589650834969e-04 1.1027009882438627e-03 0.0000000000000000e+00  2.4970949138218961e-05 1.0285186775752752e-03 0.0000000000000000e+00  -1.7823259203385151e-04 9.2947252158029011e-04 0.0000000000000000e+00  -3.6153843346009389e-04 8.1331659704029808e-04 0.0000000000000000e+00  -5.2102335226104468e-04 6.8606529035594005e-04 0.0000000000000000e+00  -6.5396491750747694e-04 5.5215802640733115e-04 0.0000000000000000e+00  -7.5860200294631836e-04 4.1466620763594138e-04 0.0000000000000000e+00  -8.3388067597615933e-04 2.7553224707665188e-04 0.0000000000000000e+00  -8.7922230698233965e-04 1.3583135132078401e-04 0.0000000000000000e+00  -8.9435276171333992e-04 -3.9500161328423886e-06 0.0000000000000000e+00  -8.7919895100962021e-04 -1.4362586995407200e-04 0.0000000000000000e+00  -8.3385418304331225e-04 -2.8301723291480462e-04 0.0000000000000000e+00  -7.5860399027189319e-04 -4.2165609300457660e-04 0.0000000000000000e+00  -6.5402528706157072e-04 -5.5849406599578738e-04 0.0000000000000000e+00  -5.2114133064985410e-04 -6.9161991180444844e-04 0.0000000000000000e+00  -3.6163970651473736e-04 -8.1799328476450000e-04 0.0000000000000000e+00  -1.7810492405353633e-04 -9.3320227372973468e-04 0.0000000000000000e+00  2.5762952721049562e-05 -1.0312523787493644e-03 0.0000000000000000e+00  2.4496654301724136e-04 -1.1044009456840980e-03 0.0000000000000000e+00  4.7316657808164073e-04 -1.1430574515554667e-03 0.0000000000000000e+00  7.0280157649835076e-04 -1.1357906110417702e-03 0.0000000000000000e+00  9.2487903780399938e-04 -1.0695309858131279e-03 0.0000000000000000e+00  1.1253866051370673e-03 -9.3014024490588841e-04 0.0000000000000000e+00  1.2614855804353726e-03 -7.0378980823101729e-04 0.0000000000000000e+00  1.1398437925004949e-03 -3.8181085524547471e-04 0.0000000000000000e+00  0.0000000000000000e+00 0.0000000000000000e+00 0.0000000000000000e+00  1.2283308270552118e-03 4.5246415148219221e-04 0.0000000000000000e+00  0.0000000000000000e+00 0.0000000000000000e+00 0.0000000000000000e+00  1.3592487401963922e-03 8.2715311368612124e-04 0.0000000000000000e+00  1.2368478370210021e-03 1.0944996377981904e-03 0.0000000000000000e+00  1.0529449481150026e-03 1.2629265151804681e-03 0.0000000000000000e+00  8.4765134403613654e-04 1.3463275888004325e-03 0.0000000000000000e+00  6.3418432820344618e-04 1.3597050410309437e-03 0.0000000000000000e+00  4.2124656082046067e-04 1.3175498029118194e-03 0.0000000000000000e+00  2.1617778350525421e-04 1.2329846102107529e-03 0.0000000000000000e+00  2.5124802239371032e-05 1.1173283834677084e-03 0.0000000000000000e+00  -1.4707500945119624e-04 9.7992795052350020e-04 0.0000000000000000e+00  -2.9684000352998477e-04 8.2816309350080609e-04 0.0000000000000000e+00  -4.2167228587450180e-04 6.6756870315732642e-04 0.0000000000000000e+00  -5.1995753062037200e-04 5.0203991077471500e-04 0.0000000000000000e+00  -5.9073668442790554e-04 3.3409694694595056e-04 0.0000000000000000e+00  -6.3348831313086995e-04 1.6519383797032096e-04 0.0000000000000000e+00  -6.4796633917773129e-04 -3.9446899779089308e-06 0.0000000000000000e+00  -6.3410198399578186e-04 -1.7296815665955310e-04 0.0000000000000000e+00  -5.9196566672212961e-04 -3.4153548032584639e-04 0.0000000000000000e+00  -5.2179695675412573e-04 -5.0894998185890036e-04 0.0000000000000000e+00  -4.2408895107851405e-04 -6.7379987962684401e-04 0.0000000000000000e+00  -2.9974714548807108e-04 -8.3361680355408191e-04 0.0000000000000000e+00  -1.5028540597003353e-04 -9.8456190515081596e-04 0.0000000000000000e+00  2.1962184644897012e-05 -1.1211535545609824e-03 0.0000000000000000e+00  2.1365498769876663e-04 -1.2360574345000087e-03 0.0000000000000000e+00  4.2031819340113732e-04 -1.3199592090757035e-03 0.0000000000000000e+00  6.3635426229223372e-04 -1.3615525815475003e-03 0.0000000000000000e+00  8.5520462850106449e-04 -1.3476903318798534e-03 0.0000000000000000e+00  1.0690877928649586e-03 -1.2637658116541903e-03 0.0000000000000000e+00  1.2648570516341339e-03 -1.0944368966011519e-03 0.0000000000000000e+00  1.3973316429378238e-03 -8.2503848306259670e-04 0.0000000000000000e+00  1.2546369917668220e-03 -4.4651029463257182e-04 0.0000000000000000e+00  0.0000000000000000e+00 0.0000000000000000e+00 0.0000000000000000e+00  1.3614066084091507e-03 5.1390844732376840e-04 0.0000000000000000e+00  0.0000000000000000e+00 0.0000000000000000e+00 0.0000000000000000e+00  1.5204930651107715e-03 9.4076778422366616e-04 0.0000000000000000e+00  1.4100023778744670e-03 1.2469638411890048e-03 0.0000000000000000e+00  1.2400201712844373e-03 1.4420028868377072e-03 0.0000000000000000e+00  1.0526525050554253e-03 1.5408953006688269e-03 0.0000000000000000e+00  8.6007810368765602e-04 1.5598486150460011e-03 0.0000000000000000e+00  6.6954282572800417e-04 1.5147394565008384e-03 0.0000000000000000e+00  4.8705963674695787e-04 1.4201989187592988e-03 0.0000000000000000e+00  3.1770059018805015e-04 1.2890585010311827e-03 0.0000000000000000e+00  1.6547554225754244e-04 1.1320700926498986e-03 0.0000000000000000e+00  3.3350818264188677e-05 9.5782879557382988e-04 0.0000000000000000e+00  -7.6620187713323070e-05 7.7285243944575396e-04 0.0000000000000000e+00  -1.6313796201483343e-04 5.8177648625633630e-04 0.0000000000000000e+00  -2.2545941069302111e-04 3.8763677936768135e-04 0.0000000000000000e+00  -2.6320161374346937e-04 1.9221647336904905e-04 0.0000000000000000e+00  -2.7619380147062