<?xml version="1.0"?>
<VTKFile type="UnstructuredGrid"  version="0.1"  >
<UnstructuredGrid>
<Piece  NumberOfPoints="759" NumberOfCells="1408">
<Points>
<DataArray  type="Float64"  NumberOfComponents="3"  format="ascii">0 0.46875 0  0.03125 0.46875 0  0.03125 0.515625 0  0 0.515625 0  0.0625 0.46875 0  0.0625 0.515625 0  0.09375 0.46875 0  0.09375 0.515625 0  0.125 0.46875 0  0.125 0.515625 0  0.15625 0.46875 0  0.15625 0.515625 0  0.1875 0.46875 0  0.1875 0.515625 0  0.21875 0.46875 0  0.21875 0.515625 0  0.25 0.46875 0  0.25 0.515625 0  0.28125 0.46875 0  0.28125 0.515625 0  0.3125 0.46875 0  0.3125 0.515625 0  0.34375 0.46875 0  0.34375 0.515625 0  0.375 0.46875 0  0.375 0.515625 0  0.40625 0.46875 0  0.40625 0.515625 0  0.4375 0.46875 0  0.4375 0.515625 0  0.46875 0.46875 0  0.46875 0.515625 0  0.5 0.46875 0  0.5 0.515625 0  0.53125 0.46875 0  0.53125 0.515625 0  0.5625 0.46875 0  0.5625 0.515625 0  0.59375 0.46875 0  0.59375 0.515625 0  0.625 0.46875 0  0.625 0.515625 0  0.65625 0.46875 0  0.65625 0.515625 0  0.6875 0.46875 0  0.6875 0.515625 0  0.71875 0.46875 0  0.71875 0.515625 0  0.75 0.46875 0  0.75 0.515625 0  0.78125 0.46875 0  0.78125 0.515625 0  0.8125 0.46875 0  0.8125 0.515625 0  0.84375 0.46875 0  0.84375 0.515625 0  0.875 0.46875 0  0.875 0.515625 0  0.90625 0.46875 0  0.90625 0.515625 0  0.9375 0.46875 0  0.9375 0.515625 0  0.96875 0.46875 0  0.96875 0.515625 0  1 0.46875 0  1 0.515625 0  0.03125 0.5625 0  0 0.5625 0  0.0625 0.5625 0  0.09375 0.5625 0  0.125 0.5625 0  0.15625 0.5625 0  0.1875 0.5625 0  0.21875 0.5625 0  0.25 0.5625 0  0.28125 0.5625 0  0.3125 0.5625 0  0.34375 0.5625 0  0.375 0.5625 0  0.40625 0.5625 0  0.4375 0.5625 0  0.46875 0.5625 0  0.5 0.5625 0  0.53125 0.5625 0  0.5625 0.5625 0  0.59375 0.5625 0  0.625 0.5625 0  0.65625 0.5625 0  0.6875 0.5625 0  0.71875 0.5625 0  0.75 0.5625 0  0.78125 0.5625 0  0.8125 0.5625 0  0.84375 0.5625 0  0.875 0.5625 0  0.90625 0.5625 0  0.9375 0.5625 0  0.96875 0.5625 0  1 0.5625 0  0.03125 0.609375 0  0 0.609375 0  0.0625 0.609375 0  0.09375 0.609375 0  0.125 0.609375 0  0.15625 0.609375 0  0.1875 0.609375 0  0.21875 0.609375 0  0.25 0.609375 0  0.28125 0.609375 0  0.3125 0.609375 0  0.34375 0.609375 0  0.375 0.609375 0  0.40625 0.609375 0  0.4375 0.609375 0  0.46875 0.609375 0  0.5 0.609375 0  0.53125 0.609375 0  0.5625 0.609375 0  0.59375 0.609375 0  0.625 0.609375 0  0.65625 0.609375 0  0.6875 0.609375 0  0.71875 0.609375 0  0.75 0.609375 0  0.78125 0.609375 0  0.8125 0.609375 0  0.84375 0.609375 0  0.875 0.609375 0  0.90625 0.609375 0  0.9375 0.609375 0  0.96875 0.609375 0  1 0.609375 0  0.03125 0.65625 0  0 0.65625 0  0.0625 0.65625 0  0.09375 0.65625 0  0.125 0.65625 0  0.15625 0.65625 0  0.1875 0.65625 0  0.21875 0.65625 0  0.25 0.65625 0  0.28125 0.65625 0  0.3125 0.65625 0  0.34375 0.65625 0  0.375 0.65625 0  0.40625 0.65625 0  0.4375 0.65625 0  0.46875 0.65625 0  0.5 0.65625 0  0.53125 0.65625 0  0.5625 0.65625 0  0.59375 0.65625 0  0.625 0.65625 0  0.65625 0.65625 0  0.6875 0.65625 0  0.71875 0.65625 0  0.75 0.65625 0  0.78125 0.65625 0  0.8125 0.65625 0  0.84375 0.65625 0  0.875 0.65625 0  0.90625 0.65625 0  0.9375 0.65625 0  0.96875 0.65625 0  1 0.65625 0  0.03125 0.703125 0  0 0.703125 0  0.0625 0.703125 0  0.09375 0.703125 0  0.125 0.703125 0  0.15625 0.703125 0  0.1875 0.703125 0  0.21875 0.703125 0  0.25 0.703125 0  0.28125 0.703125 0  0.3125 0.703125 0  0.34375 0.703125 0  0.375 0.703125 0  0.40625 0.703125 0  0.4375 0.703125 0  0.46875 0.703125 0  0.5 0.703125 0  0.53125 0.703125 0  0.5625 0.703125 0  0.59375 0.703125 0  0.625 0.703125 0  0.65625 0.703125 0  0.6875 0.703125 0  0.71875 0.703125 0  0.75 0.703125 0  0.78125 0.703125 0  0.8125 0.703125 0  0.84375 0.703125 0  0.875 0.703125 0  0.90625 0.703125 0  0.9375 0.703125 0  0.96875 0.703125 0  1 0.703125 0  0.03125 0.75 0  0 0.75 0  0.0625 0.75 0  0.09375 0.75 0  0.125 0.75 0  0.15625 0.75 0  0.1875 0.75 0  0.21875 0.75 0  0.25 0.75 0  0.28125 0.75 0  0.3125 0.75 0  0.34375 0.75 0  0.375 0.75 0  0.40625 0.75 0  0.4375 0.75 0  0.46875 0.75 0  0.5 0.75 0  0.53125 0.75 0  0.5625 0.75 0  0.59375 0.75 0  0.625 0.75 0  0.65625 0.75 0  0.6875 0.75 0  0.71875 0.75 0  0.75 0.75 0  0.78125 0.75 0  0.8125 0.75 0  0.84375 0.75 0  0.875 0.75 0  0.90625 0.75 0  0.9375 0.75 0  0.96875 0.75 0  1 0.75 0  0.03125 0.796875 0  0 0.796875 0  0.0625 0.796875 0  0.09375 0.796875 0  0.125 0.796875 0  0.15625 0.796875 0  0.1875 0.796875 0  0.21875 0.796875 0  0.25 0.796875 0  0.28125 0.796875 0  0.3125 0.796875 0  0.34375 0.796875 0  0.375 0.796875 0  0.40625 0.796875 0  0.4375 0.796875 0  0.46875 0.796875 0  0.5 0.796875 0  0.53125 0.796875 0  0.5625 0.796875 0  0.59375 0.796875 0  0.625 0.796875 0  0.65625 0.796875 0  0.6875 0.796875 0  0.71875 0.796875 0  0.75 0.796875 0  0.78125 0.796875 0  0.8125 0.796875 0  0.84375 0.796875 0  0.875 0.796875 0  0.90625 0.796875 0  0.9375 0.796875 0  0.96875 0.796875 0  1 0.796875 0  0.03125 0.84375 0  0 0.84375 0  0.0625 0.84375 0  0.09375 0.84375 0  0.125 0.84375 0  0.15625 0.84375 0  0.1875 0.84375 0  0.21875 0.84375 0  0.25 0.84375 0  0.28125 0.84375 0  0.3125 0.84375 0  0.34375 0.84375 0  0.375 0.84375 0  0.40625 0.84375 0  0.4375 0.84375 0  0.46875 0.84375 0  0.5 0.84375 0  0.53125 0.84375 0  0.5625 0.84375 0  0.59375 0.84375 0  0.625 0.84375 0  0.65625 0.84375 0  0.6875 0.84375 0  0.71875 0.84375 0  0.75 0.84375 0  0.78125 0.84375 0  0.8125 0.84375 0  0.84375 0.84375 0  0.875 0.84375 0  0.90625 0.84375 0  0.9375 0.84375 0  0.96875 0.84375 0  1 0.84375 0  0.03125 0.890625 0  0 0.890625 0  0.0625 0.890625 0  0.09375 0.890625 0  0.125 0.890625 0  0.15625 0.890625 0  0.1875 0.890625 0  0.21875 0.890625 0  0.25 0.890625 0  0.28125 0.890625 0  0.3125 0.890625 0  0.34375 0.890625 0  0.375 0.890625 0  0.40625 0.890625 0  0.4375 0.890625 0  0.46875 0.890625 0  0.5 0.890625 0  0.53125 0.890625 0  0.5625 0.890625 0  0.59375 0.890625 0  0.625 0.890625 0  0.65625 0.890625 0  0.6875 0.890625 0  0.71875 0.890625 0  0.75 0.890625 0  0.78125 0.890625 0  0.8125 0.890625 0  0.84375 0.890625 0  0.875 0.890625 0  0.90625 0.890625 0  0.9375 0.890625 0  0.96875 0.890625 0  1 0.890625 0  0.03125 0.9375 0  0 0.9375 0  0.0625 0.9375 0  0.09375 0.9375 0  0.125 0.9375 0  0.15625 0.9375 0  0.1875 0.9375 0  0.21875 0.9375 0  0.25 0.9375 0  0.28125 0.9375 0  0.3125 0.9375 0  0.34375 0.9375 0  0.375 0.9375 0  0.40625 0.9375 0  0.4375 0.9375 0  0.46875 0.9375 0  0.5 0.9375 0  0.53125 0.9375 0  0.5625 0.9375 0  0.59375 0.9375 0  0.625 0.9375 0  0.65625 0.9375 0  0.6875 0.9375 0  0.71875 0.9375 0  0.75 0.9375 0  0.78125 0.9375 0  0.8125 0.9375 0  0.84375 0.9375 0  0.875 0.9375 0  0.90625 0.9375 0  0.9375 0.9375 0  0.96875 0.9375 0  1 0.9375 0  0.03125 0.984375 0  0 0.984375 0  0.0625 0.984375 0  0.09375 0.984375 0  0.125 0.984375 0  0.15625 0.984375 0  0.1875 0.984375 0  0.21875 0.984375 0  0.25 0.984375 0  0.28125 0.984375 0  0.3125 0.984375 0  0.34375 0.984375 0  0.375 0.984375 0  0.40625 0.984375 0  0.4375 0.984375 0  0.46875 0.984375 0  0.5 0.984375 0  0.53125 0.984375 0  0.5625 0.984375 0  0.59375 0.984375 0  0.625 0.984375 0  0.65625 0.984375 0  0.6875 0.984375 0  0.71875 0.984375 0  0.75 0.984375 0  0.78125 0.984375 0  0.8125 0.984375 0  0.84375 0.984375 0  0.875 0.984375 0  0.90625 0.984375 0  0.9375 0.984375 0  0.96875 0.984375 0  1 0.984375 0  0.03125 1.03125 0  0 1.03125 0  0.0625 1.03125 0  0.09375 1.03125 0  0.125 1.03125 0  0.15625 1.03125 0  0.1875 1.03125 0  0.21875 1.03125 0  0.25 1.03125 0  0.28125 1.03125 0  0.3125 1.03125 0  0.34375 1.03125 0  0.375 1.03125 0  0.40625 1.03125 0  0.4375 1.03125 0  0.46875 1.03125 0  0.5 1.03125 0  0.53125 1.03125 0  0.5625 1.03125 0  0.59375 1.03125 0  0.625 1.03125 0  0.65625 1.03125 0  0.6875 1.03125 0  0.71875 1.03125 0  0.75 1.03125 0  0.78125 1.03125 0  0.8125 1.03125 0  0.84375 1.03125 0  0.875 1.03125 0  0.90625 1.03125 0  0.9375 1.03125 0  0.96875 1.03125 0  1 1.03125 0  0.03125 1.078125 0  0 1.078125 0  0.0625 1.078125 0  0.09375 1.078125 0  0.125 1.078125 0  0.15625 1.078125 0  0.1875 1.078125 0  0.21875 1.078125 0  0.25 1.078125 0  0.28125 1.078125 0  0.3125 1.078125 0  0.34375 1.078125 0  0.375 1.078125 0  0.40625 1.078125 0  0.4375 1.078125 0  0.46875 1.078125 0  0.5 1.078125 0  0.53125 1.078125 0  0.5625 1.078125 0  0.59375 1.078125 0  0.625 1.078125 0  0.65625 1.078125 0  0.6875 1.078125 0  0.71875 1.078125 0  0.75 1.078125 0  0.78125 1.078125 0  0.8125 1.078125 0  0.84375 1.078125 0  0.875 1.078125 0  0.90625 1.078125 0  0.9375 1.078125 0  0.96875 1.078125 0  1 1.078125 0  0.03125 1.125 0  0 1.125 0  0.0625 1.125 0  0.09375 1.125 0  0.125 1.125 0  0.15625 1.125 0  0.1875 1.125 0  0.21875 1.125 0  0.25 1.125 0  0.28125 1.125 0  0.3125 1.125 0  0.34375 1.125 0  0.375 1.125 0  0.40625 1.125 0  0.4375 1.125 0  0.46875 1.125 0  0.5 1.125 0  0.53125 1.125 0  0.5625 1.125 0  0.59375 1.125 0  0.625 1.125 0  0.65625 1.125 0  0.6875 1.125 0  0.71875 1.125 0  0.75 1.125 0  0.78125 1.125 0  0.8125 1.125 0  0.84375 1.125 0  0.875 1.125 0  0.90625 1.125 0  0.9375 1.125 0  0.96875 1.125 0  1 1.125 0  0.03125 1.171875 0  0 1.171875 0  0.0625 1.171875 0  0.09375 1.171875 0  0.125 1.171875 0  0.15625 1.171875 0  0.1875 1.171875 0  0.21875 1.171875 0  0.25 1.171875 0  0.28125 1.171875 0  0.3125 1.171875 0  0.34375 1.171875 0  0.375 1.171875 0  0.40625 1.171875 0  0.4375 1.171875 0  0.46875 1.171875 0  0.5 1.171875 0  0.53125 1.171875 0  0.5625 1.171875 0  0.59375 1.171875 0  0.625 1.171875 0  0.65625 1.171875 0  0.6875 1.171875 0  0.71875 1.171875 0  0.75 1.171875 0  0.78125 1.171875 0  0.8125 1.171875 0  0.84375 1.171875 0  0.875 1.171875 0  0.90625 1.171875 0  0.9375 1.171875 0  0.96875 1.171875 0  1 1.171875 0  0.03125 1.21875 0  0 1.21875 0  0.0625 1.21875 0  0.09375 1.21875 0  0.125 1.21875 0  0.15625 1.21875 0  0.1875 1.21875 0  0.21875 1.21875 0  0.25 1.21875 0  0.28125 1.21875 0  0.3125 1.21875 0  0.34375 1.21875 0  0.375 1.21875 0  0.40625 1.21875 0  0.4375 1.21875 0  0.46875 1.21875 0  0.5 1.21875 0  0.53125 1.21875 0  0.5
[...]
<PointData  Vectors="u"> 
<DataArray  type="Float64"  Name="u"  NumberOfComponents="3" format="ascii">1.4116472794835723e-02 7.1454713464921826e-04 0.0000000000000000e+00  1.6277631053647646e-02 3.9890157325911226e-03 0.0000000000000000e+00  1.7909193644823788e-02 4.2711163622808175e-03 0.0000000000000000e+00  1.5337557211611607e-02 9.3242613419812969e-04 0.0000000000000000e+00  1.5726485705598751e-02 7.2642436528900772e-03 0.0000000000000000e+00  1.7523767198189353e-02 7.8597463440308272e-03 0.0000000000000000e+00  1.4635467150230581e-02 1.0193427203936617e-02 0.0000000000000000e+00  1.6218936090028120e-02 1.1031350242812694e-02 0.0000000000000000e+00  1.3206284364612004e-02 1.2657134781181200e-02 0.0000000000000000e+00  1.4558842258253475e-02 1.3674464450027389e-02 0.0000000000000000e+00  1.1546932836889401e-02 1.4589667721489724e-02 0.0000000000000000e+00  1.2696760613101323e-02 1.5727534869929137e-02 0.0000000000000000e+00  9.7471023993239130e-03 1.5946752579892243e-02 0.0000000000000000e+00  1.0721794293449945e-02 1.7152212485817615e-02 0.0000000000000000e+00  7.8850840453233463e-03 1.6704349468573659e-02 0.0000000000000000e+00  8.7089415388808163e-03 1.7930536369542355e-02 0.0000000000000000e+00  6.0298432901558759e-03 1.6858365582994705e-02 0.0000000000000000e+00  6.7241769137912155e-03 1.8063997540739507e-02 0.0000000000000000e+00  4.2419896934169209e-03 1.6423438508773078e-02 0.0000000000000000e+00  4.8253724937249859e-03 1.7572409918207698e-02 0.0000000000000000e+00  2.5743763130206786e-03 1.5431310895836775e-02 0.0000000000000000e+00  3.0631116148167217e-03 1.6492275189409336e-02 0.0000000000000000e+00  1.0726056526905075e-03 1.3928880257545325e-02 0.0000000000000000e+00  1.4808933308622897e-03 1.4874976007210734e-02 0.0000000000000000e+00  -2.2460361502558512e-04 1.1976221075858105e-02 0.0000000000000000e+00  1.1569064862800820e-04 1.2784772500367195e-02 0.0000000000000000e+00  -1.2850305341759690e-03 9.6445061479575166e-03 0.0000000000000000e+00  -1.0018905610136744e-03 1.0296854152432412e-02 0.0000000000000000e+00  -2.0827295820159222e-03 7.0140163242764916e-03 0.0000000000000000e+00  -1.8472769326787247e-03 7.4953316212340373e-03 0.0000000000000000e+00  -2.5978259380993935e-03 4.1721162566770113e-03 0.0000000000000000e+00  -2.4018899284227462e-03 4.4713394828550558e-03 0.0000000000000000e+00  -2.8163940075145279e-03 1.2113146431951848e-03 0.0000000000000000e+00  -2.6529319906026900e-03 1.3210989945414923e-03 0.0000000000000000e+00  -2.7303939332938738e-03 -1.7727097737021500e-03 0.0000000000000000e+00  -2.5934899618524857e-03 -1.8559353059369849e-03 0.0000000000000000e+00  -2.3377313327641387e-03 -4.6830554759283820e-03 0.0000000000000000e+00  -2.2225664816988896e-03 -4.9590007196038347e-03 0.0000000000000000e+00  -1.6423489737131109e-03 -7.4236264208166029e-03 0.0000000000000000e+00  -1.5453176581532195e-03 -7.8879477217540291e-03 0.0000000000000000e+00  -6.5439935973916647e-04 -9.9012025505514634e-03 0.0000000000000000e+00  -5.7323969710661822e-04 -1.0545286427680928e-02 0.0000000000000000e+00  6.0952366261157742e-04 -1.2027645552036783e-02 0.0000000000000000e+00  6.7540023741094837e-04 -1.2838304331918101e-02 0.0000000000000000e+00  2.1260840159494222e-03 -1.3722191062581478e-02 0.0000000000000000e+00  2.1752163467776914e-03 -1.4681353681086726e-02 0.0000000000000000e+00  3.8649534107340075e-03 -1.4913902099579173e-02 0.0000000000000000e+00  3.8932125242419238e-03 -1.5998241177619065e-02 0.0000000000000000e+00  5.7885183092543186e-03 -1.5544197737325736e-02 0.0000000000000000e+00  5.7884140040837207e-03 -1.6724777530121356e-02 0.0000000000000000e+00  7.8516542204881377e-03 -1.5569490647557504e-02 0.0000000000000000e+00  7.8113572583688199e-03 -1.6811372788010391e-02 0.0000000000000000e+00  1.0001341688070681e-02 -1.4963820010741705e-02 0.0000000000000000e+00  9.9037014085322471e-03 -1.6225679491259377e-02 0.0000000000000000e+00  1.2175434172061064e-02 -1.3721493397402447e-02 0.0000000000000000e+00  1.1997060679418628e-02 -1.4955134920906301e-02 0.0000000000000000e+00  1.4297045738872234e-02 -1.1859795050145729e-02 0.0000000000000000e+00  1.4009008582561149e-02 -1.3009459221474342e-02 0.0000000000000000e+00  1.6248292856271721e-02 -9.4227978397826758e-03 0.0000000000000000e+00  1.5824064296958672e-02 -1.0423685049602472e-02 0.0000000000000000e+00  1.7751067640463004e-02 -6.4929613396480243e-03 0.0000000000000000e+00  1.7207322286115146e-02 -7.2667508401335129e-03 0.0000000000000000e+00  1.7926121658443310e-02 -3.2629543799827057e-03 0.0000000000000000e+00  1.7458531363415648e-02 -3.6943509896902134e-03 0.0000000000000000e+00  1.5188808018107703e-02 -3.0009376509042572e-04 0.0000000000000000e+00  1.4589360997481260e-02 -4.1159307348399051e-04 0.0000000000000000e+00  1.9809832520050835e-02 5.0658268351048349e-03 0.0000000000000000e+00  1.7170039868402685e-02 1.3983560222428973e-03 0.0000000000000000e+00  1.9303920350104586e-02 9.3111521760070089e-03 0.0000000000000000e+00  1.7925751623012128e-02 1.3010010889779305e-02 0.0000000000000000e+00  1.6157605580590251e-02 1.6035502048928917e-02 0.0000000000000000e+00  1.4168913286318892e-02 1.8339116082754171e-02 0.0000000000000000e+00  1.2062049917952929e-02 1.9896454854425046e-02 0.0000000000000000e+00  9.9183026640264956e-03 2.0702833323078557e-02 0.0000000000000000e+00  7.8078127968704610e-03 2.0772355620694016e-02 0.0000000000000000e+00  5.7920909265948292e-03 2.0136613266894521e-02 0.0000000000000000e+00  3.9241858761379896e-03 1.8843172424228376e-02 0.0000000000000000e+00  2.2496765853687066e-03 1.6953714194323365e-02 0.0000000000000000e+00  8.0673068775365944e-04 1.4542226925170385e-02 0.0000000000000000e+00  -3.7300266541388165e-04 1.1693030627776308e-02 0.0000000000000000e+00  -1.2644620406178468e-03 8.4990103095765601e-03 0.0000000000000000e+00  -1.8485186004591784e-03 5.0597347987576804e-03 0.0000000000000000e+00  -2.1120891043840740e-03 1.4797952427753104e-03 0.0000000000000000e+00  -2.0478408527308863e-03 -2.1329848035623916e-03 0.0000000000000000e+00  -1.6545243239478292e-03 -5.6691944210622265e-03 0.0000000000000000e+00  -9.3695436488464858e-04 -9.0196655989837927e-03 0.0000000000000000e+00  9.3438520093969013e-05 -1.2077272103983254e-02 0.0000000000000000e+00  1.4183215679458433e-03 -1.4738964916865225e-02 0.0000000000000000e+00  3.0116733104081700e-03 -1.6907872739533199e-02 0.0000000000000000e+00  4.8393986494334826e-03 -1.8495654460781483e-02 0.0000000000000000e+00  6.8584549851608799e-03 -1.9424929764423570e-02 0.0000000000000000e+00  9.0164425981033944e-03 -1.9631883203764577e-02 0.0000000000000000e+00  1.1250730545990047e-02 -1.9068821664433640e-02 0.0000000000000000e+00  1.3487380828722752e-02 -1.7706690459945874e-02 0.0000000000000000e+00  1.5636386310472501e-02 -1.5537410647343311e-02 0.0000000000000000e+00  1.7570651960617748e-02 -1.2576831292621377e-02 0.0000000000000000e+00  1.9026760981198324e-02 -8.8745286807942626e-03 0.0000000000000000e+00  1.9186846749033086e-02 -4.5901304463355401e-03 0.0000000000000000e+00  1.5680195912533001e-02 -8.5876998616175426e-04 0.0000000000000000e+00  2.2685060695973720e-02 6.0277928586364889e-03 0.0000000000000000e+00  1.9756379397194691e-02 1.8639815146178460e-03 0.0000000000000000e+00  2.2100972893437893e-02 1.1038095944570038e-02 0.0000000000000000e+00  2.0603452649685942e-02 1.5354416496393993e-02 0.0000000000000000e+00  1.8691633191248162e-02 1.8828481091397904e-02 0.0000000000000000e+00  1.6542526863242320e-02 2.1424229771445400e-02 0.0000000000000000e+00  1.4266100602777918e-02 2.3133409286360686e-02 0.0000000000000000e+00  1.1951553808599490e-02 2.3967579163376648e-02 0.0000000000000000e+00  9.6761443687185377e-03 2.3956340042302085e-02 0.0000000000000000e+00  7.5062086278849726e-03 2.3145916663765045e-02 0.0000000000000000e+00  5.4990918630201009e-03 2.1597453367607343e-02 0.0000000000000000e+00  3.7027713476733264e-03 1.9385271375056513e-02 0.0000000000000000e+00  2.1576493771320198e-03 1.6594949711903794e-02 0.0000000000000000e+00  8.9622735080529745e-04 1.3321629653284733e-02 0.0000000000000000e+00  -5.5361563944014344e-05 9.6681992099504985e-03 0.0000000000000000e+00  -6.7773122969541318e-04 5.7438240612015514e-03 0.0000000000000000e+00  -9.5707859071890390e-04 1.6623040392853663e-03 0.0000000000000000e+00  -8.8577912001805068e-04 -2.4592321866206356e-03 0.0000000000000000e+00  -4.6179975235959253e-04 -6.5018962597894435e-03 0.0000000000000000e+00  3.1047965425056416e-04 -1.0346392242991279e-02 0.0000000000000000e+00  1.4203365568199063e-03 -1.3874715182857747e-02 0.0000000000000000e+00  2.8495286685747971e-03 -1.6971793910418351e-02 0.0000000000000000e+00  4.5719702880504419e-03 -1.9527512949132974e-02 0.0000000000000000e+00  6.5523741199128970e-03 -2.1438808907404121e-02 0.0000000000000000e+00  8.7457741917494353e-03 -2.2612095467018582e-02 0.0000000000000000e+00  1.1096146392249791e-02 -2.2965764403578341e-02 0.0000000000000000e+00  1.3535955499232250e-02 -2.2432835888826046e-02 0.0000000000000000e+00  1.5984125694281179e-02 -2.0963525133963039e-02 0.0000000000000000e+00  1.8341013920503055e-02 -1.8527845711347676e-02 0.0000000000000000e+00  2.0462654728778003e-02 -1.5119235200624389e-02 0.0000000000000000e+00  2.2040578848565175e-02 -1.0768180053219997e-02 0.0000000000000000e+00  2.2092185206525328e-02 -5.6515132737582092e-03 0.0000000000000000e+00  1.7840424986921410e-02 -1.3598297742859096e-03 0.0000000000000000e+00  2.6554662973921842e-02 7.0923714189684529e-03 0.0000000000000000e+00  2.3140909738128570e-02 2.3477874921999102e-03 0.0000000000000000e+00  2.5920432775121214e-02 1.2944903191580471e-02 0.0000000000000000e+00  2.4291567319697269e-02 1.7935884470202734e-02 0.0000000000000000e+00  2.2217148088274116e-02 2.1896595647124848e-02 0.0000000000000000e+00  1.9887337950388575e-02 2.4805331264019851e-02 0.0000000000000000e+00  1.7422392625072686e-02 2.6672136131011503e-02 0.0000000000000000e+00  1.4920863183832615e-02 2.7527262324799743e-02 0.0000000000000000e+00  1.2466515291797355e-02 2.7418400627239280e-02 0.0000000000000000e+00  1.0131824076714094e-02 2.6408841209556215e-02 0.0000000000000000e+00  7.9772851093800178e-03 2.4575530255181489e-02 0.0000000000000000e+00  6.0540728035189265e-03 2.2007178370941710e-02 0.0000000000000000e+00  4.4032486323960611e-03 1.8802417456625871e-02 0.0000000000000000e+00  3.0586556600954123e-03 1.5068070331141959e-02 0.0000000000000000e+00  2.0459366010225177e-03 1.0917703862078684e-02 0.0000000000000000e+00  1.3851536038075023e-03 6.4701899354597612e-03 0.0000000000000000e+00  1.0896487657755297e-03 1.8486712972308219e-03 0.0000000000000000e+00  1.1679686471142757e-03 -2.8206714771169448e-03 0.0000000000000000e+00  1.6223581387642926e-03 -7.4094543942560837e-03 0.0000000000000000e+00  2.4498660195057349e-03 -1.1788336375728927e-02 0.0000000000000000e+00  3.6405020730968579e-03 -1.5828020963103664e-02 0.0000000000000000e+00  5.1774495519118433e-03 -1.9400786693950161e-02 0.0000000000000000e+00  7.0349037203214322e-03 -2.2382000658910335e-02 0.0000000000000000e+00  9.1777862159899692e-03 -2.4652151616108064e-02 0.0000000000000000e+00  1.1559519053410258e-02 -2.6099049214561774e-02 0.0000000000000000e+00  1.4121520084518804e-02 -2.6620409673858279e-02 0.0000000000000000e+00  1.6791245146340089e-02 -2.6126612864187878e-02 0.0000000000000000e+00  1.9480813603976587e-02 -2.4543628805781401e-02 0.0000000000000000e+00  2.2079905694784449e-02 -2.1816216990815287e-02 0.0000000000000000e+00  2.4425393615754212e-02 -1.7912866755452311e-02 0.0000000000000000e+00  2.6153900190966695e-02 -1.2844230532850429e-02 0.0000000000000000e+00  2.6080381780351779e-02 -6.8071880532404629e-03 0.0000000000000000e+00  2.0885999503416169e-02 -1.8581581640003358e-03 0.0000000000000000e+00  3.1464933483070986e-02 8.2554671296974098e-03 0.0000000000000000e+00  2.7365780128828003e-02 2.8712895794056194e-03 0.0000000000000000e+00  3.0808320400005952e-02 1.5022080471093473e-02 0.0000000000000000e+00  2.9044219418764321e-02 2.0739785246239695e-02 0.0000000000000000e+00  2.6801281237838266e-02 2.5219627914781537e-02 0.0000000000000000e+00  2.4289022720835260e-02 2.8456136564276629e-02 0.0000000000000000e+00  2.1639690906186584e-02 3.0480517460090662e-02 0.0000000000000000e+00  1.8959886962932253e-02 3.1344726159124987e-02 0.0000000000000000e+00  1.6340671206801816e-02 3.1117662155402910e-02 0.0000000000000000e+00  1.3858071760214004e-02 2.9882486349828437e-02 0.0000000000000000e+00  1.1576124571863652e-02 2.7734438543579983e-02 0.0000000000000000e+00  9.5459600195664657e-03 2.4778548339660793e-02 0.0000000000000000e+00  7.8096767523736701e-03 2.1127866981660522e-02 0.0000000000000000e+00  6.3991236175701882e-03 1.6901741955229223e-02 0.0000000000000000e+00  5.3400800052177538e-03 1.2224620666883896e-02 0.0000000000000000e+00  4.6503995740210568e-03 7.2250234944302291e-03 0.0000000000000000e+00  4.3440238127024590e-03 2.0348012211191834e-03 0.0000000000000000e+00  4.4284278267167892e-03 -3.2113358616436814e-03 0.0000000000000000e+00  4.9076676216493927e-03 -8.3763906838635830e-03 0.0000000000000000e+00  5.7793792888042803e-03 -1.3321380333609458e-02 0.0000000000000000e+00  7.0365006917896197e-03 -1.7906112179466919e-02 0.0000000000000000e+00  8.6639114689131599e-03 -2.1989852540756735e-02 0.0000000000000000e+00  1.0638753492651865e-02 -2.5432669510731701e-02 0.0000000000000000e+00  1.2927143531477586e-02 -2.8096947877415460e-02 0.0000000000000000e+00  1.5483619130954911e-02 -2.9849557125182537e-02 0.0000000000000000e+00  1.8248203102539908e-02 -3.0564413173047516e-02 0.0000000000000000e+00  2.1145557950943344e-02 -3.0125525680589203e-02 0.0000000000000000e+00  2.4081627620382177e-02 -2.8430486091498616e-02 0.0000000000000000e+00  2.6936140106948992e-02 -2.5394564906788496e-02 0.0000000000000000e+00  2.9524503465733366e-02 -2.0957424234512859e-02 0.0000000000000000e+00  3.1418328186925769e-02 -1.5106965106409437e-02 0.0000000000000000e+00  3.1184688808070696e-02 -8.0606936665525361e-03 0.0000000000000000e+00  2.4807087088788364e-02 -2.3729787646719061e-03 0.0000000000000000e+00  3.7508976226887529e-02 9.5174385900085798e-03 0.0000000000000000e+00  3.2504669871156903e-02 3.4513191140450750e-03 0.0000000000000000e+00  3.6862742726811538e-02 1.7265920600190450e-02 0.0000000000000000e+00  3.4968951498854040e-02 2.3756866167554781e-02 0.0000000000000000e+00  3.2565384256902162e-02 2.8780501344546190e-02 0.0000000000000000e+00  2.9887828339172837e-02 3.2350813522233637e-02 0.0000000000000000e+00  2.7080305546228915e-02 3.4523939667365652e-02 0.0000000000000000e+00  2.4257675439970927e-02 3.5377644166726112e-02 0.0000000000000000e+00  2.1515210354270207e-02 3.5005819432619170e-02 0.0000000000000000e+00  1.8931829238180507e-02 3.3515062438377305e-02 0.0000000000000000e+00  1.6570635728174247e-02 3.1021640712373670e-02 0.0000000000000000e+00  1.4482145475710077e-02 2.7649123360498483e-02 0.0000000000000000e+00  1.2704363153464951e-02 2.3526190139190745e-02 0.0000000000000000e+00  1.1267377533352017e-02 1.8785342670489993e-02 0.0000000000000000e+00  1.0192096893802046e-02 1.3561688834538845e-02 0.0000000000000000e+00  9.4955783802517599e-03 7.9926740387180027e-03 0.0000000000000000e+00  9.1882163152322283e-03 2.2177107701732198e-03 0.0000000000000000e+00  9.2789214203047882e-03 -3.6214646806073192e-03 0.0000000000000000e+00  9.7708582783714616e-03 -9.3806204207246748e-03 0.0000000000000000e+00  1.0665557153320106e-02 -1.4912629032674847e-02 0.0000000000000000e+00  1.1958027030457162e-02 -2.0067247596796595e-02 0.0000000000000000e+00  1.3638720858243992e-02 -2.4691288969336780e-02 0.0000000000000000e+00  1.5688677708215276e-02 -2.8629048338782315e-02 0.0000000000000000e+00  1.8079420418643338e-02 -3.1723572879731932e-02 0.0000000000000000e+00  2.0768731917632798e-02 -3.3818399259990098e-02 0.0000000000000000e+00  2.3699228156987384e-02 -3.4760240863740723e-02 0.0000000000000000e+00  2.6795080018393889e-02 -3.4402336567133172e-02 0.0000000000000000e+00  2.9958934024461197e-02 -3.2608677031337706e-02 0.0000000000000000e+00  3.3061447330016105e-02 -2.9259322561673028e-02 0.0000000000000000e+00  3.5895290338542940e-02 -2.4259210322771160e-02 0.0000000000000000e+00  3.7955340343581390e-02 -1.7568223729962563e-02 0.0000000000000000e+00  3.7508402661476953e-02 -9.4238174303748045e-03 0.0000000000000000e+00  2.9662555598605200e-02 -2.9289570371037886e-03 0.0000000000000000e+00  4.4816818015553657e-02 1.0874079283004164e-02 0.0000000000000000e+00  3.8658068424274633e-02 4.1014623465282524e-03 0.0000000000000000e+00  4.4222823737599545e-02 1.9663806837223904e-02 0.0000000000000000e+00  4.2215304201224754e-02 2.6962705992055504e-02 0.0000000000000000e+00  3.9674580688424603e-02 3.2540420080659146e-02 0.0000000000000000e+00  3.6868798214470498e-02 3.6435276348367469e-02 0.0000000000000000e+00  3.3954484745178107e-02 3.8733863116304758e-02 0.0000000000000000e+00  3.1052657461118016e-02 3.9545232565779562e-02 0.0000000000000000e+00  2.8260641167543090e-02 3.8993331596483237e-02 0.0000000000000000e+00  2.5655744133888929e-02 3.7212428378505427e-02 0.0000000000000000e+00  2.3297392153137076e-02 3.4343202574277802e-02 0.0000000000000000e+00  2.1229597107232424e-02 3.0529874830121883e-02 0.0000000000000000e+00  1.9484409145502767e-02 2.5918006151187223e-02 0.0000000000000000e+00  1.8083699138834997e-02 2.0653131200575901e-02 0.0000000000000000e+00  1.7043630501278696e-02 1.4880345303690293e-02 0.0000000000000000e+00  1.6374269786944343e-02 8.7441670154998589e-03 0.0000000000000000e+00  1.6084949476266892e-02 2.3895737123354080e-03 0.0000000000000000e+00  1.6181047218282864e-02 -4.0373644534984618e-03 0.0000000000000000e+00  1.6669183121492528e-02 -1.0387695076506772e-02 0.0000000000000000e+00  1.7551905090526745e-02 -1.6508649274859372e-02 0.0000000000000000e+00  1.8831547826245354e-02 -2.2242052410149989e-02 0.0000000000000000e+00  2.0503992553769470e-02 -2.7423577295744662e-02 0.0000000000000000e+00  2.2559788684077309e-02 -3.1882344950315306e-02 0.0000000000000000e+00  2.4978391767386678e-02 -3.5441215100801851e-02 0.0000000000000000e+00  2.7726548396559188e-02 -3.7918352365132954e-02 0.0000000000000000e+00  3.0753530203814515e-02 -3.9129537960663388e-02 0.0000000000000000e+00  3.3988105349009659e-02 -3.8892095669332966e-02 0.0000000000000000e+00  3.7333306182595234e-02 -3.7029805840688580e-02 0.0000000000000000e+00  4.0653449604919734e-02 -3.3379826971875394e-02 0.0000000000000000e+00  4.3717491849457162e-02 -2.7803990100759433e-02 0.0000000000000000e+00  4.5930898818954673e-02 -2.0226092126433327e-02 0.0000000000000000e+00  4.5199541098173666e-02 -1.0901184188679979e-02 0.0000000000000000e+00  3.5550846245683644e-02 -3.5458973923442379e-03 0.0000000000000000e+00  5.3548974342044892e-02 1.2314793102005022e-02 0.0000000000000000e+00  4.5948018270502343e-02 4.8334934243879687e-03 0.0000000000000000e+00  5.3060160662327251e-02 2.2189775763593159e-02 0.0000000000000000e+00  5.0967008750026022e-02 3.0311649317621928e-02 0.0000000000000000e+00  4.8330239614688471e-02 3.6431116213584011e-02 0.0000000000000000e+00  4.5457091685880899e-02 4.0618048712119471e-02 0.0000000000000000e+00  4.2516554530292176e-02 4.2997485547125888e-02 0.0000000000000000e+00  3.9633099578125282e-02 4.3717185591846001e-02 0.0000000000000000e+00  3.6901848646437849e-02 4.2937885523838107e-02 0.0000000000000000e+00  3.4393492579653982e-02 4.0826735477715030e-02 0.0000000000000000e+00  3.2157693951352304e-02 3.7552746567574673e-02 0.0000000000000000e+00  3.0226898043873848e-02 3.3282962669732220e-02 0.0000000000000000e+00  2.8620517676686316e-02 2.8180530371162575e-02 0.0000000000000000e+00  2.7348946178512988e-02 2.2403393856258603e-02 0.0000000000000000e+00  2.6416968835654947e-02 1.6104570025888474e-02 0.0000000000000000e+00  2.5827329521256558e-02 9.4330633331833821e-03 0.0000000000000000e+00  2.5582245163419049e-02 2.5354862722202867e-03 0.0000000000000000e+00  2.5686492957585603e-02 -4.4413762170880172e-03 0.0000000000000000e+00  