<?xml version="1.0"?>
<VTKFile type="UnstructuredGrid"  version="0.1"  >
<UnstructuredGrid>
<Piece  NumberOfPoints="825" NumberOfCells="1536">
<Points>
<DataArray  type="Float64"  NumberOfComponents="3"  format="ascii">9.95005782863226e-24 0.5 0  0.06249999237701918 0.5000002609071087 0  0.06249968421238889 0.5625002969907076 0  -3.091507134063054e-07 0.5625000483776555 0  0.1249999614844968 0.5000005100174972 0  0.1249996596040614 0.5625005102314601 0  0.187499903489173 0.5000007434786549 0  0.1874996159154601 0.5625006947666271 0  0.2499998111198227 0.5000009053837897 0  0.2499995494684912 0.5625008317064942 0  0.3124996650893944 0.5000009734872957 0  0.3124994538023469 0.5625009096087834 0  0.3749994834121914 0.500000992571163 0  0.3749993284780936 0.5625009348295684 0  0.4374992639802783 0.500000956863898 0  0.4374991794244411 0.5625009118602545 0  0.4999990181564519 0.5000008675356751 0  0.4999990135602031 0.5625008437433675 0  0.5624987632286745 0.5000007374092227 0  0.5624988402421557 0.5625007402425642 0  0.6249985316061514 0.5000005993296678 0  0.6249986713174125 0.5625006173514835 0  0.6874983355533143 0.5000004637045489 0  0.687498517085308 0.5625004856741219 0  0.7499981647729878 0.5000003184132136 0  0.7499983825176767 0.5625003480969873 0  0.8124980246642021 0.5000001734600745 0  0.812498270372165 0.5625002085893637 0  0.8749979220449263 0.5000000352043293 0  0.8749981830204904 0.562500070905621 0  0.9374978481246337 0.4999998952536109 0  0.9374981213652382 0.5624999379351076 0  0.9999978162394273 0.4999997779790304 0  0.9999980866284187 0.5624998163216496 0  1.062497823224427 0.4999996821371763 0  1.062498079891955 0.5624997057488946 0  1.124997844773061 0.4999995692030874 0  1.124998098335696 0.5624996000432855 0  1.187497914903716 0.4999994859854085 0  1.187498140016998 0.5624995033504873 0  1.24999799109649 0.499999385660945 0  1.249998202935216 0.5624994122094839 0  1.312498093852906 0.4999992997599074 0  1.312498283875401 0.5624993322877896 0  1.374998239120653 0.4999992513479323 0  1.374998383588244 0.5624992725503951 0  1.437498387258421 0.4999992014792886 0  1.437498499032414 0.562499230680614 0  1.499998556000501 0.4999991816638546 0  1.499998625791474 0.5624992139474818 0  1.562498759573766 0.4999992193448266 0  1.562498763369691 0.5624992319971992 0  1.624998955824934 0.4999992749909726 0  1.624998907898684 0.56249928018613 0  1.687499159152516 0.4999993691111701 0  1.687499053753762 0.5624993582183103 0  1.74999937871127 0.4999995099800839 0  1.749999197901469 0.5624994650109104 0  1.812499569269075 0.4999996456479518 0  1.8124993331489 0.562499587377476 0  1.874999743415418 0.4999997903998045 0  1.874999450341448 0.5624997206772367 0  1.93749990159168 0.4999999265121419 0  1.937499538450437 0.562499872482444 0  2 0.5 0  1.99999956794641 0.5625001302306768 0  0.0624994500058421 0.6250003415207225 0  -5.484780122902926e-07 0.6250001469397927 0  0.1249994365946461 0.6250005166871124 0  0.1874994089016791 0.6250006667050972 0  0.2499993650436456 0.6250007812044277 0  0.3124993020279198 0.6250008523206206 0  0.3749992191754365 0.625000879008603 0  0.4374991192316738 0.6250008633666293 0  0.4999990064268626 0.6250008088798851 0  0.5624988860772346 0.6250007226066933 0  0.6249987648875591 0.6250006144160103 0  0.6874986498762027 0.6250004929491675 0  0.749998546334853 0.6250003637195863 0  0.8124984577205128 0.6250002308799375 0  0.8749983864675277 0.6250000982269567 0  0.9374983340595782 0.6249999693779972 0  0.9999983017259533 0.6249998477161248 0  1.062498290406326 0.6249997342495015 0  1.124998299177805 0.6249996282518578 0  1.187498326503687 0.6249995302318733 0  1.249998370573469 0.6249994412499909 0  1.312498428935154 0.6249993643148988 0  1.374998500260401 0.6249993039281938 0  1.437498582457037 0.6249992628692012 0  1.499998672493131 0.6249992450743368 0  1.56249876851437 0.6249992546997299 0  1.624998868048462 0.6249992919705398 0  1.687498967298566 0.6249993555466169 0  1.749999062553781 0.6249994429383352 0  1.812499148203744 0.6249995492371148 0  1.874999215753286 0.624999673202423 0  1.937499254706439 0.6249998263217805 0  1.999999262390924 0.6250000363875706 0  0.06249928350392737 0.6875003920119533 0  -7.161466680709178e-07 0.6875002506693918 0  0.1249992770763767 0.6875005285824936 0  0.1874992614181367 0.6875006480506883 0  0.2499992346154748 0.6875007410842686 0  0.3124991949967953 0.6875008009793113 0  0.3749991419465133 0.6875008248215017 0  0.4374990765018903 0.6875008127983889 0  0.4999990009184977 0.6875007674604274 0  0.5624989183888659 0.6875006937946696 0  0.6249988330478298 0.6875005985042764 0  0.6874987495089976 0.6875004882568863 0  0.7499986719380416 0.6875003685262221 0  0.8124986035777332 0.6875002437337041 0  0.8749985468203065 0.687500117703421 0  0.9374985033826597 0.6874999938343864 0  0.9999984745444453 0.6874998748824138 0  1.062498461045802 0.6874997624713464 0  1.12499846266354 0.6874996574222665 0  1.187498478407453 0.6874995606829102 0  1.249998506789562 0.6874994738010031 0  1.312498546005795 0.6874993992276436 0  1.37499859438127 0.6874993400158899 0  1.437498650062077 0.6874992990716313 0  1.49999871094409 0.6874992792648454 0  1.56249877512929 0.6874992828937359 0  1.624998840522767 0.6874993105742372 0  1.687498904405768 0.6874993613895308 0  1.749998963485896 0.6874994332866792 0  1.8124990133928 0.687499523730389 0  1.874999048751277 0.6874996320620049 0  1.937499065791074 0.687499761099534 0  1.99999906870109 0.6874999087465996 0  0.06249917187928626 0.7500004438370413 0  -8.281269582531203e-07 0.750000346827538 0  0.1249991691604075 0.7500005449044805 0  0.187499161291786 0.7500006364878677 0  0.2499991464086815 0.7500007091832527 0  0.3124991231191424 0.7500007565439841 0  0.3749990906988072 0.7500007750366441 0  0.4374990493288016 0.7500007637939953 0  0.4999990000620751 0.7500007242418972 0  0.5624989447390301 0.7500006597665089 0  0.6249988859222274 0.7500005750906862 0  0.6874988266339151 0.7500004753322588 0  0.7499987698892067 0.7500003652627469 0  0.8124987183244441 0.7500002490766059 0  0.8749986740686065 0.7500001304477589 0  0.9374986387646252 0.7500000125686613 0  0.9999986136128659 0.749999898057674 0  1.062498599296336 0.7499997888659717 0  1.124998595842251 0.7499996864700778 0  1.187498602653015 0.7499995922861626 0  1.249998618657142 0.7499995080124041 0  1.31249864249938 0.7499994357746808 0  1.374998672731321 0.7499993779788058 0  1.437498707824951 0.749999337008987 0  1.499998746191317 0.7499993149880972 0  1.562498786259618 0.7499993133963901 0  1.6249988263454 0.7499993326374598 0  1.687498864453117 0.7499993719478663 0  1.749998898202008 0.7499994295927083 0  1.812498924862157 0.7499995032884621 0  1.874998941995853 0.7499995906251623 0  1.937498949284242 0.7499996877935361 0  1.99999895047162 0.7499997836224019 0  0.06249910228289482 0.8125004933214168 0  -8.978611172646637e-07 0.8125004315395196 0  0.1249991015260993 0.8125005637743906 0  0.1874990983756079 0.8125006304115476 0  0.2499990912895078 0.8125006842220678 0  0.3124990789859711 0.812500718950349 0  0.3749990606104464 0.8125007308326976 0  0.4374990358731995 0.8125007183836735 0  0.499999005104988 0.8125006821239723 0  0.5624989692575397 0.8125006242320882 0  0.6249989298543737 0.8125005480526162 0  0.6874988888324616 0.8125004574973175 0  0.7499988482814071 0.812500356531233 0  0.8124988101914788 0.8125002488824385 0  0.8749987762977586 0.8125001379327569 0  0.9374987480131338 0.8125000266700676 0  0.9999987263898379 0.8124999176411307 0  1.062498712057552 0.8124998129489047 0  1.124998705162003 0.8124997143712656 0  1.187498705374471 0.8124996235730768 0  1.249998711979702 0.81249954229844 0  1.312498724007046 0.8124994724491229 0  1.374998740355483 0.8124994160086404 0  1.437498759864217 0.8124993748610427 0  1.499998781355417 0.8124993505646866 0  1.56249880365366 0.8124993440819227 0  1.624998825537649 0.8124993555291382 0  1.687498845672792 0.8124993840568282 0  1.74999886262341 0.8124994278570967 0  1.812498875046598 0.8124994841741742 0  1.874998882226169 0.8124995489511518 0  1.937498884867873 0.8124996153781336 0  1.999998885277303 0.8124996708097469 0  0.06249906435498978 0.8750005384133869 0  -9.358443276060948e-07 0.8750005040437342 0  0.1249990646242355 0.8750005834258514 0  0.1874990642066104 0.8750006283754417 0  0.2499990619659552 0.8750006651080486 0  0.312499056776232 0.8750006877472003 0  0.3749990477339041 0.8750006925212264 0  0.4374990342938461 0.8750006775894942 0  0.49999901635139 0.8750006428233091 0  0.5624989942758559 0.8750005895148175 0  0.6249989688893111 0.8750005200033375 0  0.6874989413735632 0.875000437256411 0  0.7499989131152904 0.8750003444916563 0  0.812498885537521 0.8750002449074482 0  0.8749988599638648 0.8750001415239098 0  0.9374988375264236 0.8750000370943384 0  0.9999988190995254 0.8749999340589208 0  1.062498805242667 0.8749998345474859 0  1.12499879616223 0.8749997404458369 0  1.187498791716203 0.8749996535051863 0  1.249998791468314 0.8749995754408061 0  1.312498794774811 0.8749995079671153 0  1.374998800874886 0.8749994527448089 0  1.437498808960979 0.874999411253415 0  1.499998818225256 0.8749993846161485 0  1.56249882788057 0.8749993734011724 0  1.624998837155395 0.8749993774364808 0  1.687498845292575 0.87499939567111 0  1.749998851605724 0.8749994260612506 0  1.81249885564446 0.8749994653746287 0  1.874998857467022 0.8749995087059783 0  1.937498857834017 0.8749995485035159 0  1.999998857888897 0.8749995731833897 0  0.0624990501008086 0.9375005782237475 0  -9.501167318918386e-07 0.9375005649304406 0  0.1249990508771122 0.9375006025644793 0  0.187499051956117 0.937500629112782 0  0.2499990525713836 0.9375006507874547 0  0.3124990517940626 0.9375006622638371 0  0.374999048756934 0.9375006599303402 0  0.4374990428006408 0.9375006417821488 0  0.4999990335685842 0.937500607257883 0  0.5624990210567425 0.9375005570148133 0  0.624999005615505 0.9375004926489181 0  0.687498987899563 0.9375004163883401 0  0.74
[...]
<PointData  Vectors="u"> 
<DataArray  type="Float64"  Name="u"  NumberOfComponents="3" format="ascii">-4.9107111897428838e-24 -4.8795796833496267e-22 0.0000000000000000e+00  8.8463491286694948e-08 7.1332340423384557e-07 0.0000000000000000e+00  4.4416879447133919e-04 6.8341670858796264e-05 0.0000000000000000e+00  0.0000000000000000e+00 0.0000000000000000e+00 0.0000000000000000e+00  2.9395658531553996e-07 1.7065359317249474e-06 0.0000000000000000e+00  4.8055392869658951e-04 1.0598250222822125e-04 0.0000000000000000e+00  4.9267802049823553e-07 2.8942207715710982e-06 0.0000000000000000e+00  3.9531015293503899e-04 1.1713753874673364e-04 0.0000000000000000e+00  4.0414080654943722e-07 2.3676525121744205e-06 0.0000000000000000e+00  2.8785251973700632e-04 1.1669431349809539e-04 0.0000000000000000e+00  -2.2898313406520816e-07 2.5560593811972078e-07 0.0000000000000000e+00  1.7668271665861261e-04 1.1077296312358792e-04 0.0000000000000000e+00  -6.1026375650221698e-07 -1.4410975580382892e-06 0.0000000000000000e+00  6.8220815235437988e-05 1.0220006017495386e-04 0.0000000000000000e+00  -8.0482248623446544e-07 -2.7830682752356258e-06 0.0000000000000000e+00  -3.3940684781110495e-05 9.2366523269994517e-05 0.0000000000000000e+00  -6.9062538997771540e-07 -3.7864010270775805e-06 0.0000000000000000e+00  -1.2759872880395933e-04 8.1913144552237733e-05 0.0000000000000000e+00  -3.6660652283325596e-07 -4.5826328316808054e-06 0.0000000000000000e+00  -2.1136551914381329e-04 7.1195775248589105e-05 0.0000000000000000e+00  1.8568501109592497e-07 -5.0176337112971892e-06 0.0000000000000000e+00  -2.8439640650742654e-04 6.0482161808513760e-05 0.0000000000000000e+00  1.2344436553101945e-06 -4.8620428074395882e-06 0.0000000000000000e+00  -3.4619139564875256e-04 4.9960781944157729e-05 0.0000000000000000e+00  2.3272009279328298e-06 -4.6050101822328051e-06 0.0000000000000000e+00  -3.9657078267278932e-04 3.9683510980087255e-05 0.0000000000000000e+00  3.3327628730123391e-06 -4.2150996609505342e-06 0.0000000000000000e+00  -4.3552280043854138e-04 2.9662683363535153e-05 0.0000000000000000e+00  4.4408016424171634e-06 -3.5456013637925780e-06 0.0000000000000000e+00  -4.6307391005868991e-04 1.9908167934439673e-05 0.0000000000000000e+00  5.3809266628690507e-06 -2.8589868713475440e-06 0.0000000000000000e+00  -4.7929103018506551e-04 1.0376044920749288e-05 0.0000000000000000e+00  6.4173128721634482e-06 -1.6929801556585660e-06 0.0000000000000000e+00  -4.8420722231505017e-04 9.8975063868450036e-07 0.0000000000000000e+00  7.3711626833801476e-06 -3.9628204740699670e-07 0.0000000000000000e+00  -4.7786635780267374e-04 -8.4126735484014421e-06 0.0000000000000000e+00  7.6332481771144195e-06 3.2839917097812523e-07 0.0000000000000000e+00  -4.6032172952998587e-04 -1.7997688639077010e-05 0.0000000000000000e+00  8.3732086493432941e-06 1.6494675796944923e-06 0.0000000000000000e+00  -4.3148834873629711e-04 -2.7837757496965484e-05 0.0000000000000000e+00  8.3297133055708235e-06 2.0814448888423339e-06 0.0000000000000000e+00  -3.9136140842867690e-04 -3.8067095719017388e-05 0.0000000000000000e+00  7.9532202748815394e-06 2.4064564778529738e-06 0.0000000000000000e+00  -3.3992652694835669e-04 -4.8696965825636687e-05 0.0000000000000000e+00  8.0480068934284328e-06 3.2709104483389882e-06 0.0000000000000000e+00  -2.7712299047232198e-04 -5.9608484217747715e-05 0.0000000000000000e+00  7.4688218259256616e-06 3.3620685315342942e-06 0.0000000000000000e+00  -2.0321978316307598e-04 -7.0816643477410158e-05 0.0000000000000000e+00  6.6400137872554297e-06 3.4155475108318337e-06 0.0000000000000000e+00  -1.1864882958739912e-04 -8.2163976712623424e-05 0.0000000000000000e+00  6.3779709836402468e-06 4.0020587350110319e-06 0.0000000000000000e+00  -2.4036925454365263e-05 -9.3333215848677211e-05 0.0000000000000000e+00  5.5255085613060177e-06 3.7479718216889382e-06 0.0000000000000000e+00  7.9396985276849769e-05 -1.0400530926882522e-04 0.0000000000000000e+00  4.4836320602289992e-06 3.3745540517468875e-06 0.0000000000000000e+00  1.8995534151573993e-04 -1.1335629290929368e-04 0.0000000000000000e+00  4.0318065656759239e-06 3.4652976117903338e-06 0.0000000000000000e+00  3.0509563810608015e-04 -1.1963166504542515e-04 0.0000000000000000e+00  3.0106064953860988e-06 2.7191585901294741e-06 0.0000000000000000e+00  4.1893933749554801e-04 -1.1929779900385988e-04 0.0000000000000000e+00  1.8184303600410322e-06 1.8579260598848244e-06 0.0000000000000000e+00  5.1075478867795485e-04 -1.0439757635123846e-04 0.0000000000000000e+00  1.0730082324443401e-06 1.2219135773749996e-06 0.0000000000000000e+00  4.8723657346982880e-04 -5.9903024370109018e-05 0.0000000000000000e+00  -2.4775315295132203e-22 -9.2924861469079349e-23 0.0000000000000000e+00  0.0000000000000000e+00 0.0000000000000000e+00 0.0000000000000000e+00  6.3466108257243089e-04 1.2489024769921165e-04 0.0000000000000000e+00  0.0000000000000000e+00 0.0000000000000000e+00 0.0000000000000000e+00  6.7661895391957758e-04 2.0820301311691463e-04 0.0000000000000000e+00  5.8207948048941745e-04 2.4496786061379075e-04 0.0000000000000000e+00  4.4338783255168292e-04 2.5561084136374124e-04 0.0000000000000000e+00  2.8927333671429939e-04 2.5147062552887431e-04 0.0000000000000000e+00  1.3218546171781925e-04 2.3857666295278319e-04 0.0000000000000000e+00  -2.0555212135415807e-05 2.2031346102266818e-04 0.0000000000000000e+00  -1.6400644083717315e-04 1.9870520181229081e-04 0.0000000000000000e+00  -2.9475187479846966e-04 1.7506862755084542e-04 0.0000000000000000e+00  -4.1048409791957823e-04 1.5031281127232354e-04 0.0000000000000000e+00  -5.0970205608891585e-04 1.2506858450250444e-04 0.0000000000000000e+00  -5.9148099073716160e-04 9.9746765893557590e-05 0.0000000000000000e+00  -6.5530728312598364e-04 7.4576063073629462e-05 0.0000000000000000e+00  -7.0093087861977622e-04 4.9652803893690539e-05 0.0000000000000000e+00  -7.2824487716529956e-04 2.4970481832259753e-05 0.0000000000000000e+00  -7.3720877744388362e-04 4.2800665201334666e-07 0.0000000000000000e+00  -7.2782025175420853e-04 -2.4135394631626136e-05 0.0000000000000000e+00  -7.0012612428052817e-04 -4.8885753754625444e-05 0.0000000000000000e+00  -6.5420448863421070e-04 -7.3938425037701970e-05 0.0000000000000000e+00  -5.9017874588919949e-04 -9.9304521694443460e-05 0.0000000000000000e+00  -5.0832691263878195e-04 -1.2490426316750532e-04 0.0000000000000000e+00  -4.0916772070381634e-04 -1.5049032130666596e-04 0.0000000000000000e+00  -2.9359534544873901e-04 -1.7563232210923962e-04 0.0000000000000000e+00  -1.6304310330953514e-04 -1.9968889563180177e-04 0.0000000000000000e+00  -1.9645105034453614e-05 -2.2168942609285274e-04 0.0000000000000000e+00  1.3356521183249828e-04 -2.4017799878076130e-04 0.0000000000000000e+00  2.9241093443950868e-04 -2.5288440452387212e-04 0.0000000000000000e+00  4.5100826566714288e-04 -2.5599504326452409e-04 0.0000000000000000e+00  5.9901709585448014e-04 -2.4285038524315690e-04 0.0000000000000000e+00  7.0696348255165804e-04 -2.0191431360570125e-04 0.0000000000000000e+00  6.5474939960095903e-04 -1.1674871561998628e-04 0.0000000000000000e+00  0.0000000000000000e+00 0.0000000000000000e+00 0.0000000000000000e+00  7.2456198600524368e-04 1.7321394713310772e-04 0.0000000000000000e+00  0.0000000000000000e+00 0.0000000000000000e+00 0.0000000000000000e+00  7.8887007140772208e-04 3.0383413894094014e-04 0.0000000000000000e+00  6.9012279822100691e-04 3.7699326786286232e-04 0.0000000000000000e+00  5.4121599064358870e-04 4.0993236537149375e-04 0.0000000000000000e+00  3.7088450084032856e-04 4.1607117665725226e-04 0.0000000000000000e+00  1.9227052215416767e-04 4.0417792193342341e-04 0.0000000000000000e+00  1.4538180539515502e-05 3.8002057909476147e-04 0.0000000000000000e+00  -1.5547254930639337e-04 3.4753578516145088e-04 0.0000000000000000e+00  -3.1269196830596338e-04 3.0951023773537081e-04 0.0000000000000000e+00  -4.5347593785134818e-04 2.6796291011677839e-04 0.0000000000000000e+00  -5.7529384592942671e-04 2.2434644999900735e-04 0.0000000000000000e+00  -6.7644978173833387e-04 1.7967073956875044e-04 0.0000000000000000e+00  -7.5587173741104344e-04 1.3458553262713218e-04 0.0000000000000000e+00  -8.1292878874678824e-04 8.9451640159876058e-05 0.0000000000000000e+00  -8.4727387792719433e-04 4.4415009028227175e-05 0.0000000000000000e+00  -8.5873921141795386e-04 -5.3232221227088238e-07 0.0000000000000000e+00  -8.4728451440809936e-04 -4.5485070698664746e-05 0.0000000000000000e+00  -8.1298514975480329e-04 -9.0540710737250192e-05 0.0000000000000000e+00  -7.5604399040807453e-04 -1.3571742324139691e-04 0.0000000000000000e+00  -6.7683018675767140e-04 -1.8086678626996462e-04 0.0000000000000000e+00  -5.7599168617177021e-04 -2.2561570559424983e-04 0.0000000000000000e+00  -4.5459505944631432e-04 -2.6930296994564807e-04 0.0000000000000000e+00  -3.1428071802289999e-04 -3.1088082172461661e-04 0.0000000000000000e+00  -1.5746850572846078e-04 -3.4883713112513609e-04 0.0000000000000000e+00  1.2432547377786805e-05 -3.8106600805743672e-04 0.0000000000000000e+00  1.9083844170442288e-04 -4.0462213053168490e-04 0.0000000000000000e+00  3.7179696816482975e-04 -4.1534923767731297e-04 0.0000000000000000e+00  5.4753858667563090e-04 -4.0724961774799825e-04 0.0000000000000000e+00  7.0588012451158820e-04 -3.7154764590726085e-04 0.0000000000000000e+00  8.1483162358844576e-04 -2.9594725837113191e-04 0.0000000000000000e+00  7.4446534224189090e-04 -1.6706136499234180e-04 0.0000000000000000e+00  0.0000000000000000e+00 0.0000000000000000e+00 0.0000000000000000e+00  7.9797190821068783e-04 2.2095121463491945e-04 0.0000000000000000e+00  0.0000000000000000e+00 0.0000000000000000e+00 0.0000000000000000e+00  8.7544038766417952e-04 3.9668890125152330e-04 0.0000000000000000e+00  7.7565063961772783e-04 5.0904607871951407e-04 0.0000000000000000e+00  6.2363420783158980e-04 5.6982654700657952e-04 0.0000000000000000e+00  4.4816454373701041e-04 5.9187353229670349e-04 0.0000000000000000e+00  2.6189233522442825e-04 5.8542358845469747e-04 0.0000000000000000e+00  7.4085217343165675e-05 5.5824076048824269e-04 0.0000000000000000e+00  -1.0772419694569859e-04 5.1619536513106763e-04 0.0000000000000000e+00  -2.7757480001569800e-04 4.6374670227107274e-04 0.0000000000000000e+00  -4.3095665967258980e-04 4.0427651290624158e-04 0.0000000000000000e+00  -5.6458738522224242e-04 3.4030858103726474e-04 0.0000000000000000e+00  -6.7616408338839096e-04 2.7366459837808023e-04 0.0000000000000000e+00  -7.6414909171431029e-04 2.0558793560224959e-04 0.0000000000000000e+00  -8.2757293132708235e-04 1.3685576509169919e-04 0.0000000000000000e+00  -8.6586381038800467e-04 6.7892401193221026e-05 0.0000000000000000e+00  -8.7872795277720342e-04 -1.1185545313471962e-06 0.0000000000000000e+00  -8.6608255759103390e-04 -7.0119002083508358e-05 0.0000000000000000e+00  -8.2803620567291976e-04 -1.3905304159825361e-04 0.0000000000000000e+00  -7.6490488392099343e-04 -2.0774108581417296e-04 0.0000000000000000e+00  -6.7727582268733327e-04 -2.7575582721337915e-04 0.0000000000000000e+00  -5.6611887030755324e-04 -3.4230795802791348e-04 0.0000000000000000e+00  -4.3294283381299658e-04 -4.0613628368222314e-04 0.0000000000000000e+00  -2.7997142763256728e-04 -4.6538300092014865e-04 0.0000000000000000e+00  -1.1033662157613133e-04 -5.1746563475036744e-04 0.0000000000000000e+00  7.1729819482426705e-05 -5.5892134318146890e-04 0.0000000000000000e+00  2.6076997351122183e-04 -5.8518058105477356e-04 0.0000000000000000e+00  4.5005632396493106e-04 -5.9026226834922222e-04 0.0000000000000000e+00  6.3135249979310952e-04 -5.6638735112472425e-04 0.0000000000000000e+00  7.9243339306886017e-04 -5.0362989287974845e-04 0.0000000000000000e+00  9.0064729909613748e-04 -3.9019657672224590e-04 0.0000000000000000e+00  8.1725361587904122e-04 -2.1586769062077046e-04 0.0000000000000000e+00  0.0000000000000000e+00 0.0000000000000000e+00 0.0000000000000000e+00  8.7147525626866246e-04 2.6920610134461648e-04 0.0000000000000000e+00  0.0000000000000000e+00 0.0000000000000000e+00 0.0000000000000000e+00  9.6090784623729367e-04 4.8908613373437949e-04 0.0000000000000000e+00  8.6244445926216906e-04 6.3964739927278792e-04 0.0000000000000000e+00  7.1165164853795077e-04 7.2919646712545267e-04 0.0000000000000000e+00  5.3813659717530631e-04 7.6928635084110627e-04 0.0000000000000000e+00  3.5346858868775204e-04 7.7067742419593369e-04 0.0000000000000000e+00  1.6622291028893483e-04 7.4252421307932658e-04 0.0000000000000000e+00  -1.6243193386080699e-05 6.9234621596572928e-04 0.0000000000000000e+00  -1.8780368812547013e-04 6.2619860066037876e-04 0.0000000000000000e+00  -3.4361972584052606e-04 5.4886624377294742e-04 0.0000000000000000e+00  -4.8003575833521507e-04 4.6403677461162043e-04 0.0000000000000000e+00  -5.9439879819558298e-04 3.7445427916833654e-04 0.0000000000000000e+00  -6.8487552217903302e-04 2.8206460658227671e-04 0.0000000000000000e+00  -7.5026628554188709e-04 1.8816175010545667e-04 0.0000000000000000e+00  -7.8983714659532696e-04 9.3541141102082049e-05 0.0000000000000000e+00  -8.0319797216770415e-04 -1.3407236965154648e-06 0.0000000000000000e+00  -7.9023185110895400e-04 -9.6200730423745719e-05 0.0000000000000000e+00  -7.5106910720278163e-04 -1.9075727504834890e-04 0.0000000000000000e+00  -6.8611021686607032e-04 -2.8455743975628142e-04 0.0000000000000000e+00  -5.9608862220413461e-04 -3.7680623768892723e-04 0.0000000000000000e+00  -4.8218856912751355e-04 -4.6620495464100038e-04 0.0000000000000000e+00  -3.4619478198375078e-04 -5.5079624292777077e-04 0.0000000000000000e+00  -1.9065843904252504e-04 -6.2781223336311578e-04 0.0000000000000000e+00  -1.9063606797988176e-05 -6.9352720629022393e-04 0.0000000000000000e+00  1.6403696440575125e-04 -7.4310637826089396e-04 0.0000000000000000e+00  3.5298815077244188e-04 -7.7044149099911080e-04 0.0000000000000000e+00  5.4112970145511307e-04 -7.6798723843705681e-04 0.0000000000000000e+00  7.2069245599182784e-04 -7.2665378051085599e-04 0.0000000000000000e+00  8.8019607700967986e-04 -6.3591779688263654e-04 0.0000000000000000e+00  9.8637880250488025e-04 -4.8463702644926265e-04 0.0000000000000000e+00  8.9009489707573219e-04 -2.6474347314163818e-04 0.0000000000000000e+00  0.0000000000000000e+00 0.0000000000000000e+00 0.0000000000000000e+00  9.5142214190047862e-04 3.1703223606081155e-04 0.0000000000000000e+00  0.0000000000000000e+00 0.0000000000000000e+00 0.0000000000000000e+00  1.0559039021404096e-03 5.7971938478741148e-04 0.0000000000000000e+00  9.6230251767633241e-04 7.6609511753232638e-04 0.0000000000000000e+00  8.1764941238569953e-04 8.8286028326375714e-04 0.0000000000000000e+00  6.5247614056844201e-04 9.4068561119515907e-04 0.0000000000000000e+00  4.7727152791356196e-04 9.5053127164726643e-04 0.0000000000000000e+00  2.9951361196181407e-04 9.2249282851581359e-04 0.0000000000000000e+00  1.2582397421978148e-04 8.6538761655955473e-04 0.0000000000000000e+00  -3.8056523837665502e-05 7.8664943278146209e-04 0.0000000000000000e+00  -1.8743035624227528e-04 6.9235875607856988e-04 0.0000000000000000e+00  -3.1863869368918904e-04 5.8733284647532818e-04 0.0000000000000000e+00  -4.2895307001682349e-04 4.7524830266311349e-04 0.0000000000000000e+00  -5.1644013859522379e-04 3.5878734872418978e-04 0.0000000000000000e+00  -5.7980326173504503e-04 2.3980543775655057e-04 0.0000000000000000e+00  -6.1823051178660159e-04 1.1951820747187361e-04 0.0000000000000000e+00  -6.3128111842965955e-04 -1.2959720562211997e-06 0.0000000000000000e+00  -6.1881648252842174e-04 -1.2208211333492109e-04 0.0000000000000000e+00  -5.8097724048480513e-04 -2.4228801188904089e-04 0.0000000000000000e+00  -5.1819976726840615e-04 -3.6114152194595124e-04 0.0000000000000000e+00  -4.3128378868380698e-04 -4.7743477644996644e-04 0.0000000000000000e+00  -3.2149388043312290e-04 -5.8931811636941012e-04 0.0000000000000000e+00  -1.9070025083751878e-04 -6.9411069569973226e-04 0.0000000000000000e+00  -4.1518593797704859e-05 -7.8813007757483323e-04 0.0000000000000000e+00  1.2257261706212716e-04 -8.6654420756495949e-04 0.0000000000000000e+00  2.9715548748650251e-04 -9.2325276766538553e-04 0.0000000000000000e+00  4.7692326076613902e-04 -9.5080598196028456e-04 0.0000000000000000e+00  6.5588112513942289e-04 -9.4038849731812463e-04 0.0000000000000000e+00  8.2728048664853723e-04 -8.8193433582406074e-04 0.0000000000000000e+00  9.8069416137216698e-04 -7.6450545874315724e-04 0.0000000000000000e+00  1.0819671569276966e-03 -5.7727909188740598e-04 0.0000000000000000e+00  9.6991985563837208e-04 -3.1320421780063818e-04 0.0000000000000000e+00  0.0000000000000000e+00 0.0000000000000000e+00 0.0000000000000000e+00  1.0414255136084306e-03 3.6246889449951614e-04 0.0000000000000000e+00  0.0000000000000000e+00 0.0000000000000000e+00 0.0000000000000000e+00  1.1658732694049313e-03 6.6522917838238052e-04 0.0000000000000000e+00  1.0821006464874247e-03 8.8396037587509726e-04 0.0000000000000000e+00  9.4947890458940741e-04 1.0250100441628936e-03 0.0000000000000000e+00  7.9951203876042710e-04 1.0988118122472656e-03 0.0000000000000000e+00  6.4153048850551606e-04 1.1165478666748225e-03 0.0000000000000000e+00  4.8166294444156374e-04 1.0890033227700297e-03 0.0000000000000000e+00  3.2543527571978858e-04 1.0259888167086192e-03 0.0000000000000000e+00  1.7780866755211865e-04 9.3605746725949218e-04 0.0000000000000000e+00  4.2971216423602366e-05 8.2639771594014005e-04 0.0000000000000000e+00  -7.5726961143860708e-05 7.0283570790437191e-04 0.0000000000000000e+00  -1.7572860088566568e-04 5.6991169561259095e-04 0.0000000000000000e+00  -2.5518483122780359e-04 4.3101184439956657e-04 0.0000000000000000e+00  -3.1283362252664605e-04 2.8854409465455612e-04 0.0000000000000000e+00  -3.4787164672651661e-04 1.4414983247660555e-04 0.0000000000000000e+00  -3.5985583824504880e-04 -1.0576318959802876e-06 0.0000000000000000e+00  -3.4864347056510575e-04 -1.4623625529805115e-04 0.0000000000000000e+00  -3.1436853056801913e-04 -2.9054801560158503e-04 0.0000000000000000e+00  -2.5746134324356070e-04 -4.3289151847515986e-04 0.0000000000000000e+00  -1.7869912128430816e-04 -5.7164150307064071e-04 0.0000000000000000e+00  -7.9303580898178229e-05 -7.0440828357443738e-04 0.0000000000000000e+00  3.8948999269810582e-05 -8.2782180228407692e-04 0.0000000000000000e+00  1.7362047371879144e-04 -9.3735205488241309e-04 0.0000000000000000e+00  3.2153814693679293e-04 -1.0271770604387460e-03 0.0000000000000000e+00  4.7878457798655158e-04 -1.0901065720557350e-03 0.0000000000000000e+00  6.4081610503444175e-04 -1.1175820028202013e-03 0.0000000000000000e+00  8.0271945740496636e-04 -1.0997814641245506e-03 0.0000000000000000e+00  9.5912505760216763e-04 -1.0258733790320519e-03 0.0000000000000000e+00  1.1008767040184926e-03 -8.8449709924971363e-04 0.0000000000000000e+00  1.1927990093473489e-03 -6.6471838934350428e-04 0.0000000000000000e+00  1.0603165129380470e-03 -3.5955645972871812e-04 0.0000000000000000e+00  0.0000000000000000e+00 0.0000000000000000e+00 0.0000000000000000e+00  1.1432857086540887e-03 4.0289459140836244e-04 0.0000000000000000e+00  0.0000000000000000e+00 0.0000000000000000e+00 0.0000000000000000e+00  1.2936381656450105e-03 7.4101588288278677e-04 0.0000000000000000e+00  1.2256962588779671e-03 9.8740340819182125e-04 0.0000000000000000e+00  1.1119757420477293e-03 1.1488299866253052e-03 0.0000000000000000e+00  9.8482096571850123e-04 1.2359962733219413e-03 0.0000000000000000e+00  8.5218181734205486e-04 1.2604113111855618e-03 0.0000000000000000e+00  7.1860186698530779e-04 1.2333971339098127e-03 0.0000000000000000e+00  5.8824060489558172e-04 1.1655012337717376e-03 0.0000000000000000e+00  4.6499532546687811e-04 1.0661311670449080e-03 0.0000000000000000e+00  3.5227197670592737e-04 9.4335693602508211e-04 0.0000000000000000e+00  2.5287218045178320e-04 8.0383894545712066e-04 0.0000000000000000e+00  1.6898580045067359e-04 6.5285638794036109e-04 0.0000000000000000e+00  1.0222472383957170e-04 4.9441534125586753e-04 0.0000000000000000e+00  5.3704873213072379e-05 3.3142266307868397e-04 0.0000000000000000e+00  2.4145407758149721e-05 1.6591275357672762e-04 0.0000000000000000e+00  1.3947479964168662e-05 -6.8616306738102396e-07 0.000