<?xml version="1.0"?>
<VTKFile type="UnstructuredGrid"  version="0.1"  >
<UnstructuredGrid>
<Piece  NumberOfPoints="759" NumberOfCells="1408">
<Points>
<DataArray  type="Float64"  NumberOfComponents="3"  format="ascii">0 0.46875 0  0.03125 0.46875 0  0.03125 0.515625 0  0 0.515625 0  0.0625 0.46875 0  0.0625 0.515625 0  0.09375 0.46875 0  0.09375 0.515625 0  0.125 0.46875 0  0.125 0.515625 0  0.15625 0.46875 0  0.15625 0.515625 0  0.1875 0.46875 0  0.1875 0.515625 0  0.21875 0.46875 0  0.21875 0.515625 0  0.25 0.46875 0  0.25 0.515625 0  0.28125 0.46875 0  0.28125 0.515625 0  0.3125 0.46875 0  0.3125 0.515625 0  0.34375 0.46875 0  0.34375 0.515625 0  0.375 0.46875 0  0.375 0.515625 0  0.40625 0.46875 0  0.40625 0.515625 0  0.4375 0.46875 0  0.4375 0.515625 0  0.46875 0.46875 0  0.46875 0.515625 0  0.5 0.46875 0  0.5 0.515625 0  0.53125 0.46875 0  0.53125 0.515625 0  0.5625 0.46875 0  0.5625 0.515625 0  0.59375 0.46875 0  0.59375 0.515625 0  0.625 0.46875 0  0.625 0.515625 0  0.65625 0.46875 0  0.65625 0.515625 0  0.6875 0.46875 0  0.6875 0.515625 0  0.71875 0.46875 0  0.71875 0.515625 0  0.75 0.46875 0  0.75 0.515625 0  0.78125 0.46875 0  0.78125 0.515625 0  0.8125 0.46875 0  0.8125 0.515625 0  0.84375 0.46875 0  0.84375 0.515625 0  0.875 0.46875 0  0.875 0.515625 0  0.90625 0.46875 0  0.90625 0.515625 0  0.9375 0.46875 0  0.9375 0.515625 0  0.96875 0.46875 0  0.96875 0.515625 0  1 0.46875 0  1 0.515625 0  0.03125 0.5625 0  0 0.5625 0  0.0625 0.5625 0  0.09375 0.5625 0  0.125 0.5625 0  0.15625 0.5625 0  0.1875 0.5625 0  0.21875 0.5625 0  0.25 0.5625 0  0.28125 0.5625 0  0.3125 0.5625 0  0.34375 0.5625 0  0.375 0.5625 0  0.40625 0.5625 0  0.4375 0.5625 0  0.46875 0.5625 0  0.5 0.5625 0  0.53125 0.5625 0  0.5625 0.5625 0  0.59375 0.5625 0  0.625 0.5625 0  0.65625 0.5625 0  0.6875 0.5625 0  0.71875 0.5625 0  0.75 0.5625 0  0.78125 0.5625 0  0.8125 0.5625 0  0.84375 0.5625 0  0.875 0.5625 0  0.90625 0.5625 0  0.9375 0.5625 0  0.96875 0.5625 0  1 0.5625 0  0.03125 0.609375 0  0 0.609375 0  0.0625 0.609375 0  0.09375 0.609375 0  0.125 0.609375 0  0.15625 0.609375 0  0.1875 0.609375 0  0.21875 0.609375 0  0.25 0.609375 0  0.28125 0.609375 0  0.3125 0.609375 0  0.34375 0.609375 0  0.375 0.609375 0  0.40625 0.609375 0  0.4375 0.609375 0  0.46875 0.609375 0  0.5 0.609375 0  0.53125 0.609375 0  0.5625 0.609375 0  0.59375 0.609375 0  0.625 0.609375 0  0.65625 0.609375 0  0.6875 0.609375 0  0.71875 0.609375 0  0.75 0.609375 0  0.78125 0.609375 0  0.8125 0.609375 0  0.84375 0.609375 0  0.875 0.609375 0  0.90625 0.609375 0  0.9375 0.609375 0  0.96875 0.609375 0  1 0.609375 0  0.03125 0.65625 0  0 0.65625 0  0.0625 0.65625 0  0.09375 0.65625 0  0.125 0.65625 0  0.15625 0.65625 0  0.1875 0.65625 0  0.21875 0.65625 0  0.25 0.65625 0  0.28125 0.65625 0  0.3125 0.65625 0  0.34375 0.65625 0  0.375 0.65625 0  0.40625 0.65625 0  0.4375 0.65625 0  0.46875 0.65625 0  0.5 0.65625 0  0.53125 0.65625 0  0.5625 0.65625 0  0.59375 0.65625 0  0.625 0.65625 0  0.65625 0.65625 0  0.6875 0.65625 0  0.71875 0.65625 0  0.75 0.65625 0  0.78125 0.65625 0  0.8125 0.65625 0  0.84375 0.65625 0  0.875 0.65625 0  0.90625 0.65625 0  0.9375 0.65625 0  0.96875 0.65625 0  1 0.65625 0  0.03125 0.703125 0  0 0.703125 0  0.0625 0.703125 0  0.09375 0.703125 0  0.125 0.703125 0  0.15625 0.703125 0  0.1875 0.703125 0  0.21875 0.703125 0  0.25 0.703125 0  0.28125 0.703125 0  0.3125 0.703125 0  0.34375 0.703125 0  0.375 0.703125 0  0.40625 0.703125 0  0.4375 0.703125 0  0.46875 0.703125 0  0.5 0.703125 0  0.53125 0.703125 0  0.5625 0.703125 0  0.59375 0.703125 0  0.625 0.703125 0  0.65625 0.703125 0  0.6875 0.703125 0  0.71875 0.703125 0  0.75 0.703125 0  0.78125 0.703125 0  0.8125 0.703125 0  0.84375 0.703125 0  0.875 0.703125 0  0.90625 0.703125 0  0.9375 0.703125 0  0.96875 0.703125 0  1 0.703125 0  0.03125 0.75 0  0 0.75 0  0.0625 0.75 0  0.09375 0.75 0  0.125 0.75 0  0.15625 0.75 0  0.1875 0.75 0  0.21875 0.75 0  0.25 0.75 0  0.28125 0.75 0  0.3125 0.75 0  0.34375 0.75 0  0.375 0.75 0  0.40625 0.75 0  0.4375 0.75 0  0.46875 0.75 0  0.5 0.75 0  0.53125 0.75 0  0.5625 0.75 0  0.59375 0.75 0  0.625 0.75 0  0.65625 0.75 0  0.6875 0.75 0  0.71875 0.75 0  0.75 0.75 0  0.78125 0.75 0  0.8125 0.75 0  0.84375 0.75 0  0.875 0.75 0  0.90625 0.75 0  0.9375 0.75 0  0.96875 0.75 0  1 0.75 0  0.03125 0.796875 0  0 0.796875 0  0.0625 0.796875 0  0.09375 0.796875 0  0.125 0.796875 0  0.15625 0.796875 0  0.1875 0.796875 0  0.21875 0.796875 0  0.25 0.796875 0  0.28125 0.796875 0  0.3125 0.796875 0  0.34375 0.796875 0  0.375 0.796875 0  0.40625 0.796875 0  0.4375 0.796875 0  0.46875 0.796875 0  0.5 0.796875 0  0.53125 0.796875 0  0.5625 0.796875 0  0.59375 0.796875 0  0.625 0.796875 0  0.65625 0.796875 0  0.6875 0.796875 0  0.71875 0.796875 0  0.75 0.796875 0  0.78125 0.796875 0  0.8125 0.796875 0  0.84375 0.796875 0  0.875 0.796875 0  0.90625 0.796875 0  0.9375 0.796875 0  0.96875 0.796875 0  1 0.796875 0  0.03125 0.84375 0  0 0.84375 0  0.0625 0.84375 0  0.09375 0.84375 0  0.125 0.84375 0  0.15625 0.84375 0  0.1875 0.84375 0  0.21875 0.84375 0  0.25 0.84375 0  0.28125 0.84375 0  0.3125 0.84375 0  0.34375 0.84375 0  0.375 0.84375 0  0.40625 0.84375 0  0.4375 0.84375 0  0.46875 0.84375 0  0.5 0.84375 0  0.53125 0.84375 0  0.5625 0.84375 0  0.59375 0.84375 0  0.625 0.84375 0  0.65625 0.84375 0  0.6875 0.84375 0  0.71875 0.84375 0  0.75 0.84375 0  0.78125 0.84375 0  0.8125 0.84375 0  0.84375 0.84375 0  0.875 0.84375 0  0.90625 0.84375 0  0.9375 0.84375 0  0.96875 0.84375 0  1 0.84375 0  0.03125 0.890625 0  0 0.890625 0  0.0625 0.890625 0  0.09375 0.890625 0  0.125 0.890625 0  0.15625 0.890625 0  0.1875 0.890625 0  0.21875 0.890625 0  0.25 0.890625 0  0.28125 0.890625 0  0.3125 0.890625 0  0.34375 0.890625 0  0.375 0.890625 0  0.40625 0.890625 0  0.4375 0.890625 0  0.46875 0.890625 0  0.5 0.890625 0  0.53125 0.890625 0  0.5625 0.890625 0  0.59375 0.890625 0  0.625 0.890625 0  0.65625 0.890625 0  0.6875 0.890625 0  0.71875 0.890625 0  0.75 0.890625 0  0.78125 0.890625 0  0.8125 0.890625 0  0.84375 0.890625 0  0.875 0.890625 0  0.90625 0.890625 0  0.9375 0.890625 0  0.96875 0.890625 0  1 0.890625 0  0.03125 0.9375 0  0 0.9375 0  0.0625 0.9375 0  0.09375 0.9375 0  0.125 0.9375 0  0.15625 0.9375 0  0.1875 0.9375 0  0.21875 0.9375 0  0.25 0.9375 0  0.28125 0.9375 0  0.3125 0.9375 0  0.34375 0.9375 0  0.375 0.9375 0  0.40625 0.9375 0  0.4375 0.9375 0  0.46875 0.9375 0  0.5 0.9375 0  0.53125 0.9375 0  0.5625 0.9375 0  0.59375 0.9375 0  0.625 0.9375 0  0.65625 0.9375 0  0.6875 0.9375 0  0.71875 0.9375 0  0.75 0.9375 0  0.78125 0.9375 0  0.8125 0.9375 0  0.84375 0.9375 0  0.875 0.9375 0  0.90625 0.9375 0  0.9375 0.9375 0  0.96875 0.9375 0  1 0.9375 0  0.03125 0.984375 0  0 0.984375 0  0.0625 0.984375 0  0.09375 0.984375 0  0.125 0.984375 0  0.15625 0.984375 0  0.1875 0.984375 0  0.21875 0.984375 0  0.25 0.984375 0  0.28125 0.984375 0  0.3125 0.984375 0  0.34375 0.984375 0  0.375 0.984375 0  0.40625 0.984375 0  0.4375 0.984375 0  0.46875 0.984375 0  0.5 0.984375 0  0.53125 0.984375 0  0.5625 0.984375 0  0.59375 0.984375 0  0.625 0.984375 0  0.65625 0.984375 0  0.6875 0.984375 0  0.71875 0.984375 0  0.75 0.984375 0  0.78125 0.984375 0  0.8125 0.984375 0  0.84375 0.984375 0  0.875 0.984375 0  0.90625 0.984375 0  0.9375 0.984375 0  0.96875 0.984375 0  1 0.984375 0  0.03125 1.03125 0  0 1.03125 0  0.0625 1.03125 0  0.09375 1.03125 0  0.125 1.03125 0  0.15625 1.03125 0  0.1875 1.03125 0  0.21875 1.03125 0  0.25 1.03125 0  0.28125 1.03125 0  0.3125 1.03125 0  0.34375 1.03125 0  0.375 1.03125 0  0.40625 1.03125 0  0.4375 1.03125 0  0.46875 1.03125 0  0.5 1.03125 0  0.53125 1.03125 0  0.5625 1.03125 0  0.59375 1.03125 0  0.625 1.03125 0  0.65625 1.03125 0  0.6875 1.03125 0  0.71875 1.03125 0  0.75 1.03125 0  0.78125 1.03125 0  0.8125 1.03125 0  0.84375 1.03125 0  0.875 1.03125 0  0.90625 1.03125 0  0.9375 1.03125 0  0.96875 1.03125 0  1 1.03125 0  0.03125 1.078125 0  0 1.078125 0  0.0625 1.078125 0  0.09375 1.078125 0  0.125 1.078125 0  0.15625 1.078125 0  0.1875 1.078125 0  0.21875 1.078125 0  0.25 1.078125 0  0.28125 1.078125 0  0.3125 1.078125 0  0.34375 1.078125 0  0.375 1.078125 0  0.40625 1.078125 0  0.4375 1.078125 0  0.46875 1.078125 0  0.5 1.078125 0  0.53125 1.078125 0  0.5625 1.078125 0  0.59375 1.078125 0  0.625 1.078125 0  0.65625 1.078125 0  0.6875 1.078125 0  0.71875 1.078125 0  0.75 1.078125 0  0.78125 1.078125 0  0.8125 1.078125 0  0.84375 1.078125 0  0.875 1.078125 0  0.90625 1.078125 0  0.9375 1.078125 0  0.96875 1.078125 0  1 1.078125 0  0.03125 1.125 0  0 1.125 0  0.0625 1.125 0  0.09375 1.125 0  0.125 1.125 0  0.15625 1.125 0  0.1875 1.125 0  0.21875 1.125 0  0.25 1.125 0  0.28125 1.125 0  0.3125 1.125 0  0.34375 1.125 0  0.375 1.125 0  0.40625 1.125 0  0.4375 1.125 0  0.46875 1.125 0  0.5 1.125 0  0.53125 1.125 0  0.5625 1.125 0  0.59375 1.125 0  0.625 1.125 0  0.65625 1.125 0  0.6875 1.125 0  0.71875 1.125 0  0.75 1.125 0  0.78125 1.125 0  0.8125 1.125 0  0.84375 1.125 0  0.875 1.125 0  0.90625 1.125 0  0.9375 1.125 0  0.96875 1.125 0  1 1.125 0  0.03125 1.171875 0  0 1.171875 0  0.0625 1.171875 0  0.09375 1.171875 0  0.125 1.171875 0  0.15625 1.171875 0  0.1875 1.171875 0  0.21875 1.171875 0  0.25 1.171875 0  0.28125 1.171875 0  0.3125 1.171875 0  0.34375 1.171875 0  0.375 1.171875 0  0.40625 1.171875 0  0.4375 1.171875 0  0.46875 1.171875 0  0.5 1.171875 0  0.53125 1.171875 0  0.5625 1.171875 0  0.59375 1.171875 0  0.625 1.171875 0  0.65625 1.171875 0  0.6875 1.171875 0  0.71875 1.171875 0  0.75 1.171875 0  0.78125 1.171875 0  0.8125 1.171875 0  0.84375 1.171875 0  0.875 1.171875 0  0.90625 1.171875 0  0.9375 1.171875 0  0.96875 1.171875 0  1 1.171875 0  0.03125 1.21875 0  0 1.21875 0  0.0625 1.21875 0  0.09375 1.21875 0  0.125 1.21875 0  0.15625 1.21875 0  0.1875 1.21875 0  0.21875 1.21875 0  0.25 1.21875 0  0.28125 1.21875 0  0.3125 1.21875 0  0.34375 1.21875 0  0.375 1.21875 0  0.40625 1.21875 0  0.4375 1.21875 0  0.46875 1.21875 0  0.5 1.21875 0  0.53125 1.21875 0  0.5
[...]
<PointData  Vectors="u"> 
<DataArray  type="Float64"  Name="u"  NumberOfComponents="3" format="ascii">1.4086725989078591e-02 7.1471994833209053e-04 0.0000000000000000e+00  1.6238875143345780e-02 3.9863198030961255e-03 0.0000000000000000e+00  1.7867919039969003e-02 4.2686201377281690e-03 0.0000000000000000e+00  1.5306947289703637e-02 9.3274164551416031e-04 0.0000000000000000e+00  1.5685915318456749e-02 7.2586846647987443e-03 0.0000000000000000e+00  1.7480153451824194e-02 7.8545255352342157e-03 0.0000000000000000e+00  1.4593442652367040e-02 1.0184932652552147e-02 0.0000000000000000e+00  1.6174629208774195e-02 1.1023303001657962e-02 0.0000000000000000e+00  1.3162911342747117e-02 1.2645575034491284e-02 0.0000000000000000e+00  1.4513865803617798e-02 1.3663436894948276e-02 0.0000000000000000e+00  1.1502262543161714e-02 1.4574899137600395e-02 0.0000000000000000e+00  1.2650979552074969e-02 1.5713364261774609e-02 0.0000000000000000e+00  9.7011640823605229e-03 1.5928641616990903e-02 0.0000000000000000e+00  1.0675095927285223e-02 1.7134748396957875e-02 0.0000000000000000e+00  7.8378995077068286e-03 1.6682788438035459e-02 0.0000000000000000e+00  8.6612446569988739e-03 1.7909655733372679e-02 0.0000000000000000e+00  5.9814342073565086e-03 1.6833284686350578e-02 0.0000000000000000e+00  6.6754291164395100e-03 1.8039616415654627e-02 0.0000000000000000e+00  4.1923820955253426e-03 1.6394815556362134e-02 0.0000000000000000e+00  4.7755469142583854e-03 1.7544493045661982e-02 0.0000000000000000e+00  2.5236033251558620e-03 1.5399179122791755e-02 0.0000000000000000e+00  3.0122039232588840e-03 1.6460843716075681e-02 0.0000000000000000e+00  1.0207091238159283e-03 1.3893334353101213e-02 0.0000000000000000e+00  1.4289192753385428e-03 1.4840113460446317e-02 0.0000000000000000e+00  -2.7757235416758726e-04 1.1937421446337271e-02 0.0000000000000000e+00  6.2683822143666849e-05 1.2746629045458506e-02 0.0000000000000000e+00  -1.3390106877089816e-03 9.6026814131898244e-03 0.0000000000000000e+00  -1.0558808488502680e-03 1.0255649118541127e-02 0.0000000000000000e+00  -2.1376514732625298e-03 6.9694640440405072e-03 0.0000000000000000e+00  -1.9021876531644677e-03 7.4513542952079287e-03 0.0000000000000000e+00  -2.6536120925053299e-03 4.1252019097228190e-03 0.0000000000000000e+00  -2.4576463451221231e-03 4.4249481778439997e-03 0.0000000000000000e+00  -2.8729607774806197e-03 1.1624688821066146e-03 0.0000000000000000e+00  -2.7094498500842843e-03 1.2727184226277953e-03 0.0000000000000000e+00  -2.7876536426722251e-03 -1.8229955462663230e-03 0.0000000000000000e+00  -2.6506778162508553e-03 -1.9058183300915865e-03 0.0000000000000000e+00  -2.3955949017432617e-03 -4.7342351470365833e-03 0.0000000000000000e+00  -2.2803281761492812e-03 -5.0098431841236312e-03 0.0000000000000000e+00  -1.7007291232522021e-03 -7.4751067471268140e-03 0.0000000000000000e+00  -1.6035550831534325e-03 -7.9391578614479152e-03 0.0000000000000000e+00  -7.1321456037119150e-04 -9.9523521801881832e-03 0.0000000000000000e+00  -6.3185589951666923e-04 -1.0596232615844912e-02 0.0000000000000000e+00  5.5034443790291990e-04 -1.2077805362350197e-02 0.0000000000000000e+00  6.1649764339069719e-04 -1.2888325302661385e-02 0.0000000000000000e+00  2.0665955197178626e-03 -1.3770685676159975e-02 0.0000000000000000e+00  2.1161113989238531e-03 -1.4729769935748774e-02 0.0000000000000000e+00  3.8051869190695361e-03 -1.4960052363414413e-02 0.0000000000000000e+00  3.8339765462113177e-03 -1.6044367383752089e-02 0.0000000000000000e+00  5.7284726689292229e-03 -1.5587333931431841e-02 0.0000000000000000e+00  5.7291006697581075e-03 -1.6767935660929979e-02 0.0000000000000000e+00  7.7912844856026144e-03 -1.5608966089968982e-02 0.0000000000000000e+00  7.7519968575897186e-03 -1.6850905688718630e-02 0.0000000000000000e+00  9.9405449109084519e-03 -1.4999024549307223e-02 0.0000000000000000e+00  9.8442942777479912e-03 -1.6260964422051091e-02 0.0000000000000000e+00  1.2114033727109485e-02 -1.3751866023546432e-02 0.0000000000000000e+00  1.1937571015631122e-02 -1.4985596442377366e-02 0.0000000000000000e+00  1.4234785917106633e-02 -1.1884834177906679e-02 0.0000000000000000e+00  1.3949366027165616e-02 -1.3034580431340875e-02 0.0000000000000000e+00  1.6184914183081146e-02 -9.4420663490118410e-03 0.0000000000000000e+00  1.5764216516219842e-02 -1.0443015559836585e-02 0.0000000000000000e+00  1.7686847521772953e-02 -6.5060806835292627e-03 0.0000000000000000e+00  1.7147564520095925e-02 -7.2799093327528082e-03 0.0000000000000000e+00  1.7864572147307568e-02 -3.2695864929132385e-03 0.0000000000000000e+00  1.7401149845090103e-02 -3.7010320936410922e-03 0.0000000000000000e+00  1.5141184010962845e-02 -3.0031020658669033e-04 0.0000000000000000e+00  1.4545073155933688e-02 -4.1177452973851819e-04 0.0000000000000000e+00  1.9769124398639894e-02 5.0637804716158769e-03 0.0000000000000000e+00  1.7139850402308188e-02 1.3988790958346033e-03 0.0000000000000000e+00  1.9260887505463061e-02 9.3067134513830120e-03 0.0000000000000000e+00  1.7881982654462791e-02 1.3002997002145833e-02 0.0000000000000000e+00  1.6113192516727718e-02 1.6025697826064417e-02 0.0000000000000000e+00  1.4123720228894123e-02 1.8326311058226311e-02 0.0000000000000000e+00  1.2015941478512810e-02 1.9880458814017114e-02 0.0000000000000000e+00  9.8711792697627684e-03 2.0683488346425454e-02 0.0000000000000000e+00  7.7596094366314981e-03 2.0749546398373436e-02 0.0000000000000000e+00  5.7427723337534634e-03 2.0110275931328324e-02 0.0000000000000000e+00  3.8737424777629736e-03 1.8813301868793812e-02 0.0000000000000000e+00  2.1981213212807407e-03 1.6920369852478519e-02 0.0000000000000000e+00  7.5409627542432039e-04 1.4505536956578951e-02 0.0000000000000000e+00  -4.2666617365939716e-04 1.1653194482677647e-02 0.0000000000000000e+00  -1.3190894341901939e-03 8.4562996349895822e-03 0.0000000000000000e+00  -1.9040317257170601e-03 5.0144926893812194e-03 0.0000000000000000e+00  -2.1683991857469661e-03 1.4324338357312482e-03 0.0000000000000000e+00  -2.1048509134820289e-03 -2.1819883622608022e-03 0.0000000000000000e+00  -1.7121317772514119e-03 -5.7193036105874281e-03 0.0000000000000000e+00  -9.9505391360885922e-04 -9.0702916839403118e-03 0.0000000000000000e+00  3.4951677791134482e-05 -1.2127782753709494e-02 0.0000000000000000e+00  1.3595482245895886e-03 -1.4788694175143662e-02 0.0000000000000000e+00  2.9527064264592974e-03 -1.6956132207862143e-02 0.0000000000000000e+00  4.7803189861805387e-03 -1.8541745505228906e-02 0.0000000000000000e+00  6.7993263310435377e-03 -1.9468156528531632e-02 0.0000000000000000e+00  8.9573064456190399e-03 -1.9671566111994134e-02 0.0000000000000000e+00  1.1191600236038097e-02 -1.9104311043094041e-02 0.0000000000000000e+00  1.3428236436943896e-02 -1.7737379831285760e-02 0.0000000000000000e+00  1.5577176975678649e-02 -1.5562749170946688e-02 0.0000000000000000e+00  1.7511343981465838e-02 -1.2596335049051192e-02 0.0000000000000000e+00  1.8967636041793180e-02 -8.8877923077836356e-03 0.0000000000000000e+00  1.9130078661243735e-02 -4.5968565991634670e-03 0.0000000000000000e+00  1.5636651019776484e-02 -8.5899913705734675e-04 0.0000000000000000e+00  2.2645471625866560e-02 6.0261985935327793e-03 0.0000000000000000e+00  1.9727143500998939e-02 1.8646590586555020e-03 0.0000000000000000e+00  2.2059083780250094e-02 1.1034501704789791e-02 0.0000000000000000e+00  2.0560829868886292e-02 1.5348552298644179e-02 0.0000000000000000e+00  1.8648358927551532e-02 1.8820059961829578e-02 0.0000000000000000e+00  1.6498448338889478e-02 2.1412982811331794e-02 0.0000000000000000e+00  1.4221069238928886e-02 2.3119097259087746e-02 0.0000000000000000e+00  1.1905458263392054e-02 2.3950001726422619e-02 0.0000000000000000e+00  9.6289104784261035e-03 2.3935344272176300e-02 0.0000000000000000e+00  7.4577947211730798e-03 2.3121404759730530e-02 0.0000000000000000e+00  5.4494842859164807e-03 2.1569389295390321e-02 0.0000000000000000e+00  3.6519809620999717e-03 1.9353686255868526e-02 0.0000000000000000e+00  2.1057085782729551e-03 1.6559945841343619e-02 0.0000000000000000e+00  8.4318754105125069e-04 1.3283383042070256e-02 0.0000000000000000e+00  -1.0943231075649449e-04 9.6269606044929717e-03 0.0000000000000000e+00  -7.3275044785317859e-04 5.6999183874443587e-03 0.0000000000000000e+00  -1.0129518620798470e-03 1.6161282748378913e-03 0.0000000000000000e+00  -9.4240257338439200e-04 -2.5072127328054001e-03 0.0000000000000000e+00  -5.1906283247405121e-04 -6.5511532245720889e-03 0.0000000000000000e+00  2.5269110865393696e-04 -1.0396341020657524e-02 0.0000000000000000e+00  1.3621368849982439e-03 -1.3924723191997375e-02 0.0000000000000000e+00  2.7910286502565796e-03 -1.7021190253197930e-02 0.0000000000000000e+00  4.5132730066398752e-03 -1.9575599338395606e-02 0.0000000000000000e+00  6.4935703558225005e-03 -2.1484871703130501e-02 0.0000000000000000e+00  8.6869374206455571e-03 -2.2655418624438338e-02 0.0000000000000000e+00  1.1037327341338206e-02 -2.3005643099354628e-02 0.0000000000000000e+00  1.3477176238287673e-02 -2.2468590496501684e-02 0.0000000000000000e+00  1.5925374695309153e-02 -2.0994515249867667e-02 0.0000000000000000e+00  1.8282248348247061e-02 -1.8553483943901189e-02 0.0000000000000000e+00  2.0403846934598440e-02 -1.5139000779080293e-02 0.0000000000000000e+00  2.1982006803970600e-02 -1.0781634282987210e-02 0.0000000000000000e+00  2.2035985824391167e-02 -5.6583354795836181e-03 0.0000000000000000e+00  1.7797345511975350e-02 -1.3600883978012006e-03 0.0000000000000000e+00  2.6516543978466624e-02 7.0912288714896432e-03 0.0000000000000000e+00  2.3112891590209714e-02 2.3485843963124099e-03 0.0000000000000000e+00  2.5880050108155740e-02 1.2942155160953175e-02 0.0000000000000000e+00  2.4250453391975346e-02 1.7931193414020961e-02 0.0000000000000000e+00  2.2175370933869041e-02 2.1889604212774454e-02 0.0000000000000000e+00  1.9844732967832627e-02 2.4795709822217099e-02 0.0000000000000000e+00  1.7378798038166041e-02 2.6659592997864287e-02 0.0000000000000000e+00  1.4876155840956216e-02 2.7511551150081099e-02 0.0000000000000000e+00  1.2420611163961688e-02 2.7399327483556418e-02 0.0000000000000000e+00  1.0084673544613926e-02 2.6386271251812699e-02 0.0000000000000000e+00  7.9288685530520091e-03 2.4549393643171949e-02 0.0000000000000000e+00  6.0043969832437359e-03 2.1977475219525422e-02 0.0000000000000000e+00  4.3523437306113386e-03 1.8769221621632685e-02 0.0000000000000000e+00  3.0065726365494571e-03 1.5031531912815782e-02 0.0000000000000000e+00  1.9927448859080126e-03 1.0878050316588232e-02 0.0000000000000000e+00  1.3309387148560941e-03 6.4277257460768978e-03 0.0000000000000000e+00  1.0345098871267753e-03 1.8037761439398268e-03 0.0000000000000000e+00  1.1120159548738634e-03 -2.8675460524972152e-03 0.0000000000000000e+00  1.5657099756901695e-03 -7.4577898610390251e-03 0.0000000000000000e+00  2.3926455897349186e-03 -1.1837553582810151e-02 0.0000000000000000e+00  3.5828338169257849e-03 -1.5877488004015904e-02 0.0000000000000000e+00  5.1194551091666742e-03 -1.9449828180873551e-02 0.0000000000000000e+00  6.9766975286622646e-03 -2.2429908353348477e-02 0.0000000000000000e+00  9.1194704962988468e-03 -2.4698196281644214e-02 0.0000000000000000e+00  1.1501178495249875e-02 -2.6142493532322484e-02 0.0000000000000000e+00  1.4063216069815143e-02 -2.6660522024425117e-02 0.0000000000000000e+00  1.6733009538938620e-02 -2.6162681729903461e-02 0.0000000000000000e+00  1.9422643433296614e-02 -2.4574977514723297e-02 0.0000000000000000e+00  2.2021764896069804e-02 -2.1842218571855875e-02 0.0000000000000000e+00  2.4367257577855687e-02 -1.7932958975685344e-02 0.0000000000000000e+00  2.6096038519828790e-02 -1.2857933312257907e-02 0.0000000000000000e+00  2.6024880882728078e-02 -6.8141452704231706e-03 0.0000000000000000e+00  2.0843439216949245e-02 -1.8584738549354241e-03 0.0000000000000000e+00  3.1428558662299683e-02 8.2547725750333270e-03 0.0000000000000000e+00  2.7339175126140657e-02 2.8721841632859354e-03 0.0000000000000000e+00  3.0769733469363458e-02 1.5020175543587368e-02 0.0000000000000000e+00  2.9004908628624544e-02 2.0736272581391497e-02 0.0000000000000000e+00  2.6761302048265316e-02 2.5214085538058775e-02 0.0000000000000000e+00  2.4248200728652140e-02 2.8448176070426025e-02 0.0000000000000000e+00  2.1597853660129111e-02 3.0469794535477029e-02 0.0000000000000000e+00  1.8916900495078274e-02 3.1330947198226641e-02 0.0000000000000000e+00  1.6296441153560572e-02 3.1100590432100578e-02 0.0000000000000000e+00  1.3812539236322708e-02 2.9861947896879234e-02 0.0000000000000000e+00  1.1529261955196881e-02 2.7710327487003941e-02 0.0000000000000000e+00  9.4977676085787974e-03 2.4750831457608813e-02 0.0000000000000000e+00  7.7601798216803998e-03 2.1096587290918404e-02 0.0000000000000000e+00  6.3483699917511374e-03 1.6867021182155700e-02 0.0000000000000000e+00  5.2881377008891011e-03 1.2186660483551354e-02 0.0000000000000000e+00  4.5973546077043050e-03 7.1841054313200349e-03 0.0000000000000000e+00  4.2899776617684677e-03 1.9912852030664592e-03 0.0000000000000000e+00  4.3734948680287248e-03 -3.2570144265340059e-03 0.0000000000000000e+00  4.8519721172687628e-03 -8.4237252744594135e-03 0.0000000000000000e+00  5.7230520824899352e-03 -1.3369799182922694e-02 0.0000000000000000e+00  6.9796753096633534e-03 -1.7954985615698933e-02 0.0000000000000000e+00  8.6067198999515079e-03 -2.2038501820001617e-02 0.0000000000000000e+00  1.0581321417438391e-02 -2.5480377053480500e-02 0.0000000000000000e+00  1.2869585036669797e-02 -2.8142968869545641e-02 0.0000000000000000e+00  1.5426030896088879e-02 -2.9893132348994631e-02 0.0000000000000000e+00  1.8190658227430219e-02 -3.0604782908435338e-02 0.0000000000000000e+00  2.1088099250320028e-02 -3.0161944460582863e-02 0.0000000000000000e+00  2.4024261794197761e-02 -2.8462238067231811e-02 0.0000000000000000e+00  2.6878838605857946e-02 -2.5420979572166741e-02 0.0000000000000000e+00  2.9467244817392702e-02 -2.0977892573362102e-02 0.0000000000000000e+00  3.1361371995482730e-02 -1.5120958707701733e-02 0.0000000000000000e+00  3.1130061825704908e-02 -8.0678134722557710e-03 0.0000000000000000e+00  2.4765163997801959e-02 -2.3733684101461764e-03 0.0000000000000000e+00  3.7474573674172625e-02 9.5171831114546357e-03 0.0000000000000000e+00  3.2479638279283574e-02 3.4522954763037605e-03 0.0000000000000000e+00  3.6826198317890718e-02 1.7264846980271652e-02 0.0000000000000000e+00  3.4931699885100337e-02 2.3754522730754093e-02 0.0000000000000000e+00  3.2527470559233496e-02 2.8776407455294063e-02 0.0000000000000000e+00  2.9849071557390264e-02 3.2344525675571716e-02 0.0000000000000000e+00  2.7040525258594045e-02 3.4515062856379460e-02 0.0000000000000000e+00  2.4216728256298316e-02 3.5365838164034498e-02 0.0000000000000000e+00  2.1472991835403528e-02 3.4990804443070997e-02 0.0000000000000000e+00  1.8888270329444051e-02 3.3496624457685226e-02 0.0000000000000000e+00  1.6525699123226267e-02 3.0999636447896280e-02 0.0000000000000000e+00  1.4435822546970121e-02 2.7623484503891974e-02 0.0000000000000000e+00  1.2656671425863620e-02 2.3496926823346403e-02 0.0000000000000000e+00  1.1218358368222020e-02 1.8752545956104118e-02 0.0000000000000000e+00  1.0141813517774840e-02 1.3525532115096651e-02 0.0000000000000000e+00  9.4441136648521773e-03 7.9534132468368820e-03 0.0000000000000000e+00  9.1356705835329566e-03 2.1756833239026450e-03 0.0000000000000000e+00  9.2254097762730341e-03 -3.6658422777854933e-03 0.0000000000000000e+00  9.7165078527557854e-03 -9.4268563818917534e-03 0.0000000000000000e+00  1.0610503583996445e-02 -1.4960161533760995e-02 0.0000000000000000e+00  1.1902410649271219e-02 -2.0115451510963219e-02 0.0000000000000000e+00  1.3582682186026903e-02 -2.4739484102195571e-02 0.0000000000000000e+00  1.5632352524071368e-02 -2.8676509185563630e-02 0.0000000000000000e+00  1.8022934055026529e-02 -3.1769539836140254e-02 0.0000000000000000e+00  2.0712193126668731e-02 -3.3862091255380436e-02 0.0000000000000000e+00  2.3642722387822279e-02 -3.4800869274386283e-02 0.0000000000000000e+00  2.6738662202636970e-02 -3.4439120230431025e-02 0.0000000000000000e+00  2.9902622080709491e-02 -3.2640858124984524e-02 0.0000000000000000e+00  3.3005222111481540e-02 -2.9286183108445881e-02 0.0000000000000000e+00  3.5839135460094686e-02 -2.4280089404460574e-02 0.0000000000000000e+00  3.7899506138187107e-02 -1.7582538418892641e-02 0.0000000000000000e+00  3.7454848851052436e-02 -9.4311193508241787e-03 0.0000000000000000e+00  2.9621410157042481e-02 -2.9294313232680136e-03 0.0000000000000000e+00  4.4784583165459836e-02 1.0874246409643552e-02 0.0000000000000000e+00  3.8634744282070525e-02 4.1025065868067496e-03 0.0000000000000000e+00  4.4188536868585912e-02 1.9663538910882947e-02 0.0000000000000000e+00  4.2180339535615723e-02 2.6961503107555854e-02 0.0000000000000000e+00  3.9638975548903527e-02 3.2537749263238214e-02 0.0000000000000000e+00  3.6832368744651581e-02 3.6430644005828738e-02 0.0000000000000000e+00  3.3917045498101241e-02 3.8726827118935978e-02 0.0000000000000000e+00  3.1014057478218102e-02 3.9535408390463329e-02 0.0000000000000000e+00  2.8220766556508740e-02 3.8980397668650017e-02 0.0000000000000000e+00  2.5614515236378883e-02 3.7196131100895112e-02 0.0000000000000000e+00  2.3254760490863086e-02 3.4323360977391033e-02 0.0000000000000000e+00  2.1185542879729635e-02 3.0506384668977982e-02 0.0000000000000000e+00  1.9438939094903504e-02 2.5890843312360717e-02 0.0000000000000000e+00  1.8036844727015729e-02 2.0622354273812857e-02 0.0000000000000000e+00  1.6995446134781884e-02 1.4846097196096418e-02 0.0000000000000000e+00  1.6324831112485401e-02 8.7066755225819678e-03 0.0000000000000000e+00  1.6034351229491671e-02 2.3491509197001723e-03 0.0000000000000000e+00  1.6129401039175689e-02 -4.0803239812073674e-03 0.0000000000000000e+00  1.6616614732729372e-02 -1.0432717444058616e-02 0.0000000000000000e+00  1.7498551179234399e-02 -1.6555185776709745e-02 0.0000000000000000e+00  1.8777552036023624e-02 -2.2289485524198269e-02 0.0000000000000000e+00  2.0449501157647324e-02 -2.7471228195890735e-02 0.0000000000000000e+00  2.2504945371195795e-02 -3.1929482590162456e-02 0.0000000000000000e+00  2.4923331785782658e-02 -3.5487066901567228e-02 0.0000000000000000e+00  2.7671391980748618e-02 -3.7962116462655696e-02 0.0000000000000000e+00  3.0698375435885408e-02 -3.9170396980303203e-02 0.0000000000000000e+00  3.3933020359956781e-02 -3.8929231853047225e-02 0.0000000000000000e+00  3.7278321976712568e-02 -3.7062417344097924e-02 0.0000000000000000e+00  4.0598558964224089e-02 -3.3407145088672166e-02 0.0000000000000000e+00  4.3662686386419805e-02 -2.7825297569197986e-02 0.0000000000000000e+00  4.5876421389767497e-02 -2.0240746035544679e-02 0.0000000000000000e+00  4.5147277463216638e-02 -1.0908681003874049e-02 0.0000000000000000e+00  3.5510633512350974e-02 -3.5464640743596751e-03 0.0000000000000000e+00  5.3519073874224360e-02 1.2315356989419256e-02 0.0000000000000000e+00  4.5926511979942887e-02 4.8345915730041234e-03 0.0000000000000000e+00  5.3028318116566130e-02 2.2190270651038211e-02 0.0000000000000000e+00  5.0934532948515979e-02 3.0311534153952234e-02 0.0000000000000000e+00  4.8297163142306768e-02 3.6429813003313993e-02 0.0000000000000000e+00  4.5423231844716284e-02 4.0615020100841219e-02 0.0000000000000000e+00  4.2481724081078275e-02 4.2992247392077014e-02 0.0000000000000000e+00  3.9597142153476865e-02 4.3709313022023466e-02 0.0000000000000000e+00  3.6864641916368235e-02 4.2927018056671158e-02 0.0000000000000000e+00  3.4354946164369807e-02 4.0812581841403205e-02 0.0000000000000000e+00  3.2117747069924270e-02 3.7535089170729806e-02 0.0000000000000000e+00  3.0185517624887505e-02 3.3261661625942331e-02 0.0000000000000000e+00  2.8577696802814984e-02 2.8155526911598974e-02 0.0000000000000000e+00  2.7304702758386420e-02 2.2374713052985641e-02 0.0000000000000000e+00  2.6371344366009391e-02 1.6072322668336303e-02 0.0000000000000000e+00  2.5780387741931813e-02 9.3974468895822606e-03 0.0000000000000000e+00  2.5534070473457588e-02 2.4967848318765856e-03 0.0000000000000000e+00  2.5637188449182086e-02 -4.4827931395141820e-03 0.0000000000000000e+00  