<?xml version="1.0"?>
<VTKFile type="UnstructuredGrid"  version="0.1"  >
<UnstructuredGrid>
<Piece  NumberOfPoints="759" NumberOfCells="1408">
<Points>
<DataArray  type="Float64"  NumberOfComponents="3"  format="ascii">0 0.46875 0  0.03125 0.46875 0  0.03125 0.515625 0  0 0.515625 0  0.0625 0.46875 0  0.0625 0.515625 0  0.09375 0.46875 0  0.09375 0.515625 0  0.125 0.46875 0  0.125 0.515625 0  0.15625 0.46875 0  0.15625 0.515625 0  0.1875 0.46875 0  0.1875 0.515625 0  0.21875 0.46875 0  0.21875 0.515625 0  0.25 0.46875 0  0.25 0.515625 0  0.28125 0.46875 0  0.28125 0.515625 0  0.3125 0.46875 0  0.3125 0.515625 0  0.34375 0.46875 0  0.34375 0.515625 0  0.375 0.46875 0  0.375 0.515625 0  0.40625 0.46875 0  0.40625 0.515625 0  0.4375 0.46875 0  0.4375 0.515625 0  0.46875 0.46875 0  0.46875 0.515625 0  0.5 0.46875 0  0.5 0.515625 0  0.53125 0.46875 0  0.53125 0.515625 0  0.5625 0.46875 0  0.5625 0.515625 0  0.59375 0.46875 0  0.59375 0.515625 0  0.625 0.46875 0  0.625 0.515625 0  0.65625 0.46875 0  0.65625 0.515625 0  0.6875 0.46875 0  0.6875 0.515625 0  0.71875 0.46875 0  0.71875 0.515625 0  0.75 0.46875 0  0.75 0.515625 0  0.78125 0.46875 0  0.78125 0.515625 0  0.8125 0.46875 0  0.8125 0.515625 0  0.84375 0.46875 0  0.84375 0.515625 0  0.875 0.46875 0  0.875 0.515625 0  0.90625 0.46875 0  0.90625 0.515625 0  0.9375 0.46875 0  0.9375 0.515625 0  0.96875 0.46875 0  0.96875 0.515625 0  1 0.46875 0  1 0.515625 0  0.03125 0.5625 0  0 0.5625 0  0.0625 0.5625 0  0.09375 0.5625 0  0.125 0.5625 0  0.15625 0.5625 0  0.1875 0.5625 0  0.21875 0.5625 0  0.25 0.5625 0  0.28125 0.5625 0  0.3125 0.5625 0  0.34375 0.5625 0  0.375 0.5625 0  0.40625 0.5625 0  0.4375 0.5625 0  0.46875 0.5625 0  0.5 0.5625 0  0.53125 0.5625 0  0.5625 0.5625 0  0.59375 0.5625 0  0.625 0.5625 0  0.65625 0.5625 0  0.6875 0.5625 0  0.71875 0.5625 0  0.75 0.5625 0  0.78125 0.5625 0  0.8125 0.5625 0  0.84375 0.5625 0  0.875 0.5625 0  0.90625 0.5625 0  0.9375 0.5625 0  0.96875 0.5625 0  1 0.5625 0  0.03125 0.609375 0  0 0.609375 0  0.0625 0.609375 0  0.09375 0.609375 0  0.125 0.609375 0  0.15625 0.609375 0  0.1875 0.609375 0  0.21875 0.609375 0  0.25 0.609375 0  0.28125 0.609375 0  0.3125 0.609375 0  0.34375 0.609375 0  0.375 0.609375 0  0.40625 0.609375 0  0.4375 0.609375 0  0.46875 0.609375 0  0.5 0.609375 0  0.53125 0.609375 0  0.5625 0.609375 0  0.59375 0.609375 0  0.625 0.609375 0  0.65625 0.609375 0  0.6875 0.609375 0  0.71875 0.609375 0  0.75 0.609375 0  0.78125 0.609375 0  0.8125 0.609375 0  0.84375 0.609375 0  0.875 0.609375 0  0.90625 0.609375 0  0.9375 0.609375 0  0.96875 0.609375 0  1 0.609375 0  0.03125 0.65625 0  0 0.65625 0  0.0625 0.65625 0  0.09375 0.65625 0  0.125 0.65625 0  0.15625 0.65625 0  0.1875 0.65625 0  0.21875 0.65625 0  0.25 0.65625 0  0.28125 0.65625 0  0.3125 0.65625 0  0.34375 0.65625 0  0.375 0.65625 0  0.40625 0.65625 0  0.4375 0.65625 0  0.46875 0.65625 0  0.5 0.65625 0  0.53125 0.65625 0  0.5625 0.65625 0  0.59375 0.65625 0  0.625 0.65625 0  0.65625 0.65625 0  0.6875 0.65625 0  0.71875 0.65625 0  0.75 0.65625 0  0.78125 0.65625 0  0.8125 0.65625 0  0.84375 0.65625 0  0.875 0.65625 0  0.90625 0.65625 0  0.9375 0.65625 0  0.96875 0.65625 0  1 0.65625 0  0.03125 0.703125 0  0 0.703125 0  0.0625 0.703125 0  0.09375 0.703125 0  0.125 0.703125 0  0.15625 0.703125 0  0.1875 0.703125 0  0.21875 0.703125 0  0.25 0.703125 0  0.28125 0.703125 0  0.3125 0.703125 0  0.34375 0.703125 0  0.375 0.703125 0  0.40625 0.703125 0  0.4375 0.703125 0  0.46875 0.703125 0  0.5 0.703125 0  0.53125 0.703125 0  0.5625 0.703125 0  0.59375 0.703125 0  0.625 0.703125 0  0.65625 0.703125 0  0.6875 0.703125 0  0.71875 0.703125 0  0.75 0.703125 0  0.78125 0.703125 0  0.8125 0.703125 0  0.84375 0.703125 0  0.875 0.703125 0  0.90625 0.703125 0  0.9375 0.703125 0  0.96875 0.703125 0  1 0.703125 0  0.03125 0.75 0  0 0.75 0  0.0625 0.75 0  0.09375 0.75 0  0.125 0.75 0  0.15625 0.75 0  0.1875 0.75 0  0.21875 0.75 0  0.25 0.75 0  0.28125 0.75 0  0.3125 0.75 0  0.34375 0.75 0  0.375 0.75 0  0.40625 0.75 0  0.4375 0.75 0  0.46875 0.75 0  0.5 0.75 0  0.53125 0.75 0  0.5625 0.75 0  0.59375 0.75 0  0.625 0.75 0  0.65625 0.75 0  0.6875 0.75 0  0.71875 0.75 0  0.75 0.75 0  0.78125 0.75 0  0.8125 0.75 0  0.84375 0.75 0  0.875 0.75 0  0.90625 0.75 0  0.9375 0.75 0  0.96875 0.75 0  1 0.75 0  0.03125 0.796875 0  0 0.796875 0  0.0625 0.796875 0  0.09375 0.796875 0  0.125 0.796875 0  0.15625 0.796875 0  0.1875 0.796875 0  0.21875 0.796875 0  0.25 0.796875 0  0.28125 0.796875 0  0.3125 0.796875 0  0.34375 0.796875 0  0.375 0.796875 0  0.40625 0.796875 0  0.4375 0.796875 0  0.46875 0.796875 0  0.5 0.796875 0  0.53125 0.796875 0  0.5625 0.796875 0  0.59375 0.796875 0  0.625 0.796875 0  0.65625 0.796875 0  0.6875 0.796875 0  0.71875 0.796875 0  0.75 0.796875 0  0.78125 0.796875 0  0.8125 0.796875 0  0.84375 0.796875 0  0.875 0.796875 0  0.90625 0.796875 0  0.9375 0.796875 0  0.96875 0.796875 0  1 0.796875 0  0.03125 0.84375 0  0 0.84375 0  0.0625 0.84375 0  0.09375 0.84375 0  0.125 0.84375 0  0.15625 0.84375 0  0.1875 0.84375 0  0.21875 0.84375 0  0.25 0.84375 0  0.28125 0.84375 0  0.3125 0.84375 0  0.34375 0.84375 0  0.375 0.84375 0  0.40625 0.84375 0  0.4375 0.84375 0  0.46875 0.84375 0  0.5 0.84375 0  0.53125 0.84375 0  0.5625 0.84375 0  0.59375 0.84375 0  0.625 0.84375 0  0.65625 0.84375 0  0.6875 0.84375 0  0.71875 0.84375 0  0.75 0.84375 0  0.78125 0.84375 0  0.8125 0.84375 0  0.84375 0.84375 0  0.875 0.84375 0  0.90625 0.84375 0  0.9375 0.84375 0  0.96875 0.84375 0  1 0.84375 0  0.03125 0.890625 0  0 0.890625 0  0.0625 0.890625 0  0.09375 0.890625 0  0.125 0.890625 0  0.15625 0.890625 0  0.1875 0.890625 0  0.21875 0.890625 0  0.25 0.890625 0  0.28125 0.890625 0  0.3125 0.890625 0  0.34375 0.890625 0  0.375 0.890625 0  0.40625 0.890625 0  0.4375 0.890625 0  0.46875 0.890625 0  0.5 0.890625 0  0.53125 0.890625 0  0.5625 0.890625 0  0.59375 0.890625 0  0.625 0.890625 0  0.65625 0.890625 0  0.6875 0.890625 0  0.71875 0.890625 0  0.75 0.890625 0  0.78125 0.890625 0  0.8125 0.890625 0  0.84375 0.890625 0  0.875 0.890625 0  0.90625 0.890625 0  0.9375 0.890625 0  0.96875 0.890625 0  1 0.890625 0  0.03125 0.9375 0  0 0.9375 0  0.0625 0.9375 0  0.09375 0.9375 0  0.125 0.9375 0  0.15625 0.9375 0  0.1875 0.9375 0  0.21875 0.9375 0  0.25 0.9375 0  0.28125 0.9375 0  0.3125 0.9375 0  0.34375 0.9375 0  0.375 0.9375 0  0.40625 0.9375 0  0.4375 0.9375 0  0.46875 0.9375 0  0.5 0.9375 0  0.53125 0.9375 0  0.5625 0.9375 0  0.59375 0.9375 0  0.625 0.9375 0  0.65625 0.9375 0  0.6875 0.9375 0  0.71875 0.9375 0  0.75 0.9375 0  0.78125 0.9375 0  0.8125 0.9375 0  0.84375 0.9375 0  0.875 0.9375 0  0.90625 0.9375 0  0.9375 0.9375 0  0.96875 0.9375 0  1 0.9375 0  0.03125 0.984375 0  0 0.984375 0  0.0625 0.984375 0  0.09375 0.984375 0  0.125 0.984375 0  0.15625 0.984375 0  0.1875 0.984375 0  0.21875 0.984375 0  0.25 0.984375 0  0.28125 0.984375 0  0.3125 0.984375 0  0.34375 0.984375 0  0.375 0.984375 0  0.40625 0.984375 0  0.4375 0.984375 0  0.46875 0.984375 0  0.5 0.984375 0  0.53125 0.984375 0  0.5625 0.984375 0  0.59375 0.984375 0  0.625 0.984375 0  0.65625 0.984375 0  0.6875 0.984375 0  0.71875 0.984375 0  0.75 0.984375 0  0.78125 0.984375 0  0.8125 0.984375 0  0.84375 0.984375 0  0.875 0.984375 0  0.90625 0.984375 0  0.9375 0.984375 0  0.96875 0.984375 0  1 0.984375 0  0.03125 1.03125 0  0 1.03125 0  0.0625 1.03125 0  0.09375 1.03125 0  0.125 1.03125 0  0.15625 1.03125 0  0.1875 1.03125 0  0.21875 1.03125 0  0.25 1.03125 0  0.28125 1.03125 0  0.3125 1.03125 0  0.34375 1.03125 0  0.375 1.03125 0  0.40625 1.03125 0  0.4375 1.03125 0  0.46875 1.03125 0  0.5 1.03125 0  0.53125 1.03125 0  0.5625 1.03125 0  0.59375 1.03125 0  0.625 1.03125 0  0.65625 1.03125 0  0.6875 1.03125 0  0.71875 1.03125 0  0.75 1.03125 0  0.78125 1.03125 0  0.8125 1.03125 0  0.84375 1.03125 0  0.875 1.03125 0  0.90625 1.03125 0  0.9375 1.03125 0  0.96875 1.03125 0  1 1.03125 0  0.03125 1.078125 0  0 1.078125 0  0.0625 1.078125 0  0.09375 1.078125 0  0.125 1.078125 0  0.15625 1.078125 0  0.1875 1.078125 0  0.21875 1.078125 0  0.25 1.078125 0  0.28125 1.078125 0  0.3125 1.078125 0  0.34375 1.078125 0  0.375 1.078125 0  0.40625 1.078125 0  0.4375 1.078125 0  0.46875 1.078125 0  0.5 1.078125 0  0.53125 1.078125 0  0.5625 1.078125 0  0.59375 1.078125 0  0.625 1.078125 0  0.65625 1.078125 0  0.6875 1.078125 0  0.71875 1.078125 0  0.75 1.078125 0  0.78125 1.078125 0  0.8125 1.078125 0  0.84375 1.078125 0  0.875 1.078125 0  0.90625 1.078125 0  0.9375 1.078125 0  0.96875 1.078125 0  1 1.078125 0  0.03125 1.125 0  0 1.125 0  0.0625 1.125 0  0.09375 1.125 0  0.125 1.125 0  0.15625 1.125 0  0.1875 1.125 0  0.21875 1.125 0  0.25 1.125 0  0.28125 1.125 0  0.3125 1.125 0  0.34375 1.125 0  0.375 1.125 0  0.40625 1.125 0  0.4375 1.125 0  0.46875 1.125 0  0.5 1.125 0  0.53125 1.125 0  0.5625 1.125 0  0.59375 1.125 0  0.625 1.125 0  0.65625 1.125 0  0.6875 1.125 0  0.71875 1.125 0  0.75 1.125 0  0.78125 1.125 0  0.8125 1.125 0  0.84375 1.125 0  0.875 1.125 0  0.90625 1.125 0  0.9375 1.125 0  0.96875 1.125 0  1 1.125 0  0.03125 1.171875 0  0 1.171875 0  0.0625 1.171875 0  0.09375 1.171875 0  0.125 1.171875 0  0.15625 1.171875 0  0.1875 1.171875 0  0.21875 1.171875 0  0.25 1.171875 0  0.28125 1.171875 0  0.3125 1.171875 0  0.34375 1.171875 0  0.375 1.171875 0  0.40625 1.171875 0  0.4375 1.171875 0  0.46875 1.171875 0  0.5 1.171875 0  0.53125 1.171875 0  0.5625 1.171875 0  0.59375 1.171875 0  0.625 1.171875 0  0.65625 1.171875 0  0.6875 1.171875 0  0.71875 1.171875 0  0.75 1.171875 0  0.78125 1.171875 0  0.8125 1.171875 0  0.84375 1.171875 0  0.875 1.171875 0  0.90625 1.171875 0  0.9375 1.171875 0  0.96875 1.171875 0  1 1.171875 0  0.03125 1.21875 0  0 1.21875 0  0.0625 1.21875 0  0.09375 1.21875 0  0.125 1.21875 0  0.15625 1.21875 0  0.1875 1.21875 0  0.21875 1.21875 0  0.25 1.21875 0  0.28125 1.21875 0  0.3125 1.21875 0  0.34375 1.21875 0  0.375 1.21875 0  0.40625 1.21875 0  0.4375 1.21875 0  0.46875 1.21875 0  0.5 1.21875 0  0.53125 1.21875 0  0.5
[...]
<PointData  Vectors="u"> 
<DataArray  type="Float64"  Name="u"  NumberOfComponents="3" format="ascii">1.4116401594864514e-02 7.1452962176882175e-04 0.0000000000000000e+00  1.6277595029783827e-02 3.9893959157710169e-03 0.0000000000000000e+00  1.7909144618200777e-02 4.2714884442918962e-03 0.0000000000000000e+00  1.5337466948155477e-02 9.3240336477097910e-04 0.0000000000000000e+00  1.5726479164398160e-02 7.2650182346980230e-03 0.0000000000000000e+00  1.7523748983386229e-02 7.8605039250185405e-03 0.0000000000000000e+00  1.4635499927979403e-02 1.0194597352091918e-02 0.0000000000000000e+00  1.6218954835614783e-02 1.1032496104268910e-02 0.0000000000000000e+00  1.3206364675417019e-02 1.2658700687557178e-02 0.0000000000000000e+00  1.4558907194565991e-02 1.3676000067600946e-02 0.0000000000000000e+00  1.1547067588416221e-02 1.4591627158912908e-02 0.0000000000000000e+00  1.2696879652813305e-02 1.5729459123958768e-02 0.0000000000000000e+00  9.7472973107858244e-03 1.5949100359597367e-02 0.0000000000000000e+00  1.0721973805462954e-02 1.7154521142215450e-02 0.0000000000000000e+00  7.8853437375625401e-03 1.6707077012366265e-02 0.0000000000000000e+00  8.7091865503605946e-03 1.7933221682152122e-02 0.0000000000000000e+00  6.0301713671854105e-03 1.6861460551949765e-02 0.0000000000000000e+00  6.7244912757913160e-03 1.8067047913172953e-02 0.0000000000000000e+00  4.2423888090741225e-03 1.6426884498610336e-02 0.0000000000000000e+00  4.8257590027538195e-03 1.7575809623644200e-02 0.0000000000000000e+00  2.5748482258034396e-03 1.5435087208448061e-02 0.0000000000000000e+00  3.0635721026825357e-03 1.6496004158521420e-02 0.0000000000000000e+00  1.0731512728218275e-03 1.3932961756365686e-02 0.0000000000000000e+00  1.4814287331986896e-03 1.4879009693797065e-02 0.0000000000000000e+00  -2.2398418223225895e-04 1.1980578130438629e-02 0.0000000000000000e+00  1.1630106027465552e-04 1.2789081831422204e-02 0.0000000000000000e+00  -1.2843379448908559e-03 9.6491046717577279e-03 0.0000000000000000e+00  -1.0012058370559122e-03 1.0301405567694665e-02 0.0000000000000000e+00  -2.0819652069458067e-03 7.0188179083909320e-03 0.0000000000000000e+00  -1.8465193375931271e-03 7.5000872059282908e-03 0.0000000000000000e+00  -2.5969918090235512e-03 4.1770784005301671e-03 0.0000000000000000e+00  -2.4010615971255152e-03 4.4762571951454683e-03 0.0000000000000000e+00  -2.8154927548711822e-03 1.2163910817103792e-03 0.0000000000000000e+00  -2.6520356955425884e-03 1.3261329878954651e-03 0.0000000000000000e+00  -2.7294287121649380e-03 -1.7675686481834953e-03 0.0000000000000000e+00  -2.5925290487219910e-03 -1.8508342666599018e-03 0.0000000000000000e+00  -2.3367057353228960e-03 -4.6779021004475915e-03 0.0000000000000000e+00  -2.2215447952859415e-03 -4.9538847512132257e-03 0.0000000000000000e+00  -1.6412669258338032e-03 -7.4185154622577083e-03 0.0000000000000000e+00  -1.5442394573686824e-03 -7.8828712296777938e-03 0.0000000000000000e+00  -6.5326499780741121e-04 -9.8961902265027324e-03 0.0000000000000000e+00  -5.7210955708082657e-04 -1.0540305432873579e-02 0.0000000000000000e+00  6.1070613716270278e-04 -1.2022788880379382e-02 0.0000000000000000e+00  6.7657753616542427e-04 -1.2833475725755276e-02 0.0000000000000000e+00  2.1273105095947530e-03 -1.3717547049826251e-02 0.0000000000000000e+00  2.1764359429220677e-03 -1.4676734418096325e-02 0.0000000000000000e+00  3.8662201467852919e-03 -1.4909526880786074e-02 0.0000000000000000e+00  3.8944696176717842e-03 -1.5993887418278729e-02 0.0000000000000000e+00  5.7898220790281668e-03 -1.5540145682116747e-02 0.0000000000000000e+00  5.7897040139697504e-03 -1.6720743748135296e-02 0.0000000000000000e+00  7.8529926905953149e-03 -1.5565813449917228e-02 0.0000000000000000e+00  7.8126760015173723e-03 -1.6807710859356683e-02 0.0000000000000000e+00  1.0002713771697716e-02 -1.4960565785416335e-02 0.0000000000000000e+00  9.9050452965266170e-03 -1.6222437785999664e-02 0.0000000000000000e+00  1.2176840428314777e-02 -1.3718705812391476e-02 0.0000000000000000e+00  1.1998426903590978e-02 -1.4952357423899530e-02 0.0000000000000000e+00  1.4298488521463306e-02 -1.1857512541651943e-02 0.0000000000000000e+00  1.4010395110457959e-02 -1.3007184716890042e-02 0.0000000000000000e+00  1.6249774567067748e-02 -9.4210529924984472e-03 0.0000000000000000e+00  1.5825468666128367e-02 -1.0421946420600906e-02 0.0000000000000000e+00  1.7752578206012382e-02 -6.4917806037065404e-03 0.0000000000000000e+00  1.7208733926205633e-02 -7.2655745630862984e-03 0.0000000000000000e+00  1.7927576550694033e-02 -3.2623584238180387e-03 0.0000000000000000e+00  1.7459893437636074e-02 -3.6937567711592548e-03 0.0000000000000000e+00  1.5189945626167963e-02 -3.0009062189047004e-04 0.0000000000000000e+00  1.4590423196692086e-02 -4.1159118248662650e-04 0.0000000000000000e+00  1.9809735657355044e-02 5.0661777302554124e-03 0.0000000000000000e+00  1.7169906760914639e-02 1.3983233960797562e-03 0.0000000000000000e+00  1.9303855081156292e-02 9.3118699185901297e-03 0.0000000000000000e+00  1.7925723323455097e-02 1.3011101279445136e-02 0.0000000000000000e+00  1.6157623432490765e-02 1.6036969435224372e-02 0.0000000000000000e+00  1.4168985611257744e-02 1.8340961732505146e-02 0.0000000000000000e+00  1.2062183550380160e-02 1.9898676557038933e-02 0.0000000000000000e+00  9.9185030464985155e-03 2.0705425094362538e-02 0.0000000000000000e+00  7.8080841459921757e-03 2.0775307434877346e-02 0.0000000000000000e+00  5.7924363624429478e-03 2.0139910827000864e-02 0.0000000000000000e+00  3.9246075162768764e-03 1.8846796985648940e-02 0.0000000000000000e+00  2.2501756141041582e-03 1.6957642453818304e-02 0.0000000000000000e+00  8.0730741049829177e-04 1.4546430984500118e-02 0.0000000000000000e+00  -3.7234877592719998e-04 1.1697478039292098e-02 0.0000000000000000e+00  -1.2637323001247315e-03 8.5036642087336720e-03 0.0000000000000000e+00  -1.8477150661637810e-03 5.0645541267017834e-03 0.0000000000000000e+00  -2.1112145219791458e-03 1.4847350600864183e-03 0.0000000000000000e+00  -2.0468985950597919e-03 -2.1279729118258957e-03 0.0000000000000000e+00  -1.6535183187407977e-03 -5.6641618512738075e-03 0.0000000000000000e+00  -9.3588901043048891e-04 -9.0146661495503679e-03 0.0000000000000000e+00  9.4558452929438419e-05 -1.2072361316067452e-02 0.0000000000000000e+00  1.4194910477454666e-03 -1.4734199342186848e-02 0.0000000000000000e+00  3.0128871708777023e-03 -1.6903309144759304e-02 0.0000000000000000e+00  4.8406517324308734e-03 -1.8491348979962498e-02 0.0000000000000000e+00  6.8597422978291071e-03 -1.9420937012683614e-02 0.0000000000000000e+00  9.0177594854153297e-03 -1.9628255368838745e-02 0.0000000000000000e+00  1.1252072876941908e-02 -1.9065607595180962e-02 0.0000000000000000e+00  1.3488745163367630e-02 -1.7703934772088942e-02 0.0000000000000000e+00  1.5637769888519018e-02 -1.5535152870018824e-02 0.0000000000000000e+00  1.7572051605802278e-02 -1.2575105075657836e-02 0.0000000000000000e+00  1.9028166116816295e-02 -8.8733610573970105e-03 0.0000000000000000e+00  1.9188202521785346e-02 -4.5895409711126421e-03 0.0000000000000000e+00  1.5681247011058237e-02 -8.5876884969694192e-04 0.0000000000000000e+00  2.2684893235616271e-02 6.0281207059767229e-03 0.0000000000000000e+00  1.9756186557260344e-02 1.8639414573035141e-03 0.0000000000000000e+00  2.2100835647374108e-02 1.1038770065783301e-02 0.0000000000000000e+00  2.0603351834405627e-02 1.5355445676275510e-02 0.0000000000000000e+00  1.8691578333777312e-02 1.8829872695918213e-02 0.0000000000000000e+00  1.6542526771162983e-02 2.1425987662714512e-02 0.0000000000000000e+00  1.4266162648366717e-02 2.3135533480469456e-02 0.0000000000000000e+00  1.1951683980262296e-02 2.3970065624968864e-02 0.0000000000000000e+00  9.6763474130058744e-03 2.3959180491484895e-02 0.0000000000000000e+00  7.5064881686219935e-03 2.3149098402222578e-02 0.0000000000000000e+00  5.4994504879416952e-03 2.1600959141798937e-02 0.0000000000000000e+00  3.7032106714977864e-03 1.9389079291503752e-02 0.0000000000000000e+00  2.1581700884786437e-03 1.6599033216452914e-02 0.0000000000000000e+00  8.9682925119864395e-04 1.3325957583319803e-02 0.0000000000000000e+00  -5.4679523158692267e-05 9.6727359266080577e-03 0.0000000000000000e+00  -6.7697090713250436e-04 5.7485296656361986e-03 0.0000000000000000e+00  -9.5624260786130865e-04 1.6671346759664881e-03 0.0000000000000000e+00  -8.8487080468949218e-04 -2.4543239390090047e-03 0.0000000000000000e+00  -4.6082306968889958e-04 -6.4969609104841130e-03 0.0000000000000000e+00  3.1152018562293372e-04 -1.0341482827415989e-02 0.0000000000000000e+00  1.4214359636369937e-03 -1.3869886621112529e-02 0.0000000000000000e+00  2.8506816383491000e-03 -1.6967102292357442e-02 0.0000000000000000e+00  4.5731713008858249e-03 -1.9523014753690962e-02 0.0000000000000000e+00  6.5536175989372178e-03 -2.1434560167187561e-02 0.0000000000000000e+00  8.7470546682971474e-03 -2.2608150889910548e-02 0.0000000000000000e+00  1.1097458687101044e-02 -2.2962176465583781e-02 0.0000000000000000e+00  1.3537294917037711e-02 -2.2429653915798223e-02 0.0000000000000000e+00  1.5985488197262220e-02 -2.0960794389165833e-02 0.0000000000000000e+00  1.8342396130847285e-02 -1.8525606505988803e-02 0.0000000000000000e+00  2.0464052885694060e-02 -1.5117522040020875e-02 0.0000000000000000e+00  2.2041982003357326e-02 -1.0767020805238640e-02 0.0000000000000000e+00  2.2093538753969161e-02 -5.6509281954693824e-03 0.0000000000000000e+00  1.7841474959919740e-02 -1.3598293625002498e-03 0.0000000000000000e+00  2.6554407887537844e-02 7.0926765776250190e-03 0.0000000000000000e+00  2.3140645207187453e-02 2.3477420539750942e-03 0.0000000000000000e+00  2.5920204999839960e-02 1.2945533999820472e-02 0.0000000000000000e+00  2.4291374819667869e-02 1.7936852342882812e-02 0.0000000000000000e+00  2.2217000833645955e-02 2.1897910749585855e-02 0.0000000000000000e+00  1.9887245212559832e-02 2.4806999922446917e-02 0.0000000000000000e+00  1.7422362342839032e-02 2.6674160522399331e-02 0.0000000000000000e+00  1.4920901972996062e-02 2.7529640338861596e-02 0.0000000000000000e+00  1.2466628553584635e-02 2.7421125734663279e-02 0.0000000000000000e+00  1.0132016091848548e-02 2.6411902337543248e-02 0.0000000000000000e+00  7.9775591062728312e-03 2.4578911687132297e-02 0.0000000000000000e+00  6.0544310050547091e-03 2.2010859686528494e-02 0.0000000000000000e+00  4.4036922894450971e-03 1.8806373525569180e-02 0.0000000000000000e+00  3.0591850770168108e-03 1.5072271371325240e-02 0.0000000000000000e+00  2.0465511610250511e-03 1.0922115569880228e-02 0.0000000000000000e+00  1.3858517979447357e-03 6.4747736944677269e-03 0.0000000000000000e+00  1.0904282304701007e-03 1.8533844683114164e-03 0.0000000000000000e+00  1.1688262126616936e-03 -2.8158751815103552e-03 0.0000000000000000e+00  1.6232898922708724e-03 -7.4046244521909776e-03 0.0000000000000000e+00  2.4508673850808468e-03 -1.1783524915472620e-02 0.0000000000000000e+00  3.6415679107219688e-03 -1.5823282143682262e-02 0.0000000000000000e+00  5.1785742746743310e-03 -1.9396176011413531e-02 0.0000000000000000e+00  7.0360814318145871e-03 -2.2377574185333288e-02 0.0000000000000000e+00  9.1790108700384471e-03 -2.4647965179443163e-02 0.0000000000000000e+00  1.1560784630935475e-02 -2.6095157531205740e-02 0.0000000000000000e+00  1.4122820787501923e-02 -2.6616865445995303e-02 0.0000000000000000e+00  1.6792575609146345e-02 -2.6123465857596131e-02 0.0000000000000000e+00  1.9482169087197913e-02 -2.4540924924531443e-02 0.0000000000000000e+00  2.2081282117301555e-02 -2.1813997365400302e-02 0.0000000000000000e+00  2.4426786576930676e-02 -1.7911166857607224e-02 0.0000000000000000e+00  2.6155298363113033e-02 -1.2843079302664071e-02 0.0000000000000000e+00  2.6081731104047094e-02 -6.8066068085442712e-03 0.0000000000000000e+00  2.0887048649666493e-02 -1.8581570607252202e-03 0.0000000000000000e+00  3.1464578171881835e-02 8.2557506485214319e-03 0.0000000000000000e+00  2.7365435354535575e-02 2.8712404079707168e-03 0.0000000000000000e+00  3.0807988245682427e-02 1.5022669506697171e-02 0.0000000000000000e+00  2.9043920759157439e-02 2.0740693434672795e-02 0.0000000000000000e+00  2.6801026470363396e-02 2.5220867815253886e-02 0.0000000000000000e+00  2.4288821478780462e-02 2.8457716685917008e-02 0.0000000000000000e+00  2.1639551641922147e-02 3.0482441951790576e-02 0.0000000000000000e+00  1.8959816932663406e-02 3.1346994714569656e-02 0.0000000000000000e+00  1.6340676534094604e-02 3.1120269926928495e-02 0.0000000000000000e+00  1.3858157492724156e-02 2.9885423862412906e-02 0.0000000000000000e+00  1.1576294718191009e-02 2.7737691623961787e-02 0.0000000000000000e+00  9.5462175717303480e-03 2.4782098076786406e-02 0.0000000000000000e+00  7.8100236964319721e-03 2.1131689731993787e-02 0.0000000000000000e+00  6.3995609403119892e-03 1.6905809404215287e-02 0.0000000000000000e+00  5.3406077010840830e-03 1.2228899955749118e-02 0.0000000000000000e+00  4.6510166586453397e-03 7.2294774184349618e-03 0.0000000000000000e+00  4.3447283453326383e-03 2.0393885043820097e-03 0.0000000000000000e+00  4.4292169468111370e-03 -3.2066602124955976e-03 0.0000000000000000e+00  4.9085376015507633e-03 -8.3716749449264070e-03 0.0000000000000000e+00  5.7803256069781034e-03 -1.3316675549794843e-02 0.0000000000000000e+00  7.0375181274458312e-03 -1.7901471572093597e-02 0.0000000000000000e+00  8.6649942201635008e-03 -2.1985330840524477e-02 0.0000000000000000e+00  1.0639895317535493e-02 -2.5428322221544800e-02 0.0000000000000000e+00  1.2928337915743236e-02 -2.8092830478196513e-02 0.0000000000000000e+00  1.5484859477865862e-02 -2.9845724218422628e-02 0.0000000000000000e+00  1.8249482943599491e-02 -3.0560917592501895e-02 0.0000000000000000e+00  2.1146871176891454e-02 -3.0122417571965605e-02 0.0000000000000000e+00  2.4082968700972651e-02 -2.8427811982447811e-02 0.0000000000000000e+00  2.6937504159520138e-02 -2.5392366783421976e-02 0.0000000000000000e+00  2.9525885352261826e-02 -2.0955738639332505e-02 0.0000000000000000e+00  3.1419716140885276e-02 -1.5105822236468867e-02 0.0000000000000000e+00  3.1186029501610129e-02 -8.0601161248951177e-03 0.0000000000000000e+00  2.4808132928314543e-02 -2.3729759817561740e-03 0.0000000000000000e+00  3.7508511692478694e-02 9.5177019729543750e-03 0.0000000000000000e+00  3.2504239026185461e-02 3.4512676496327522e-03 0.0000000000000000e+00  3.6862296117281680e-02 1.7266470252120174e-02 0.0000000000000000e+00  3.4968535982287455e-02 2.3757717447923859e-02 0.0000000000000000e+00  3.2565010577803429e-02 2.8781668708666594e-02 0.0000000000000000e+00  2.9887506347946045e-02 3.2352307276444225e-02 0.0000000000000000e+00  2.7080044108175372e-02 3.4525765646639436e-02 0.0000000000000000e+00  2.4257482412350560e-02 3.5379803665977372e-02 0.0000000000000000e+00  2.1515092600936710e-02 3.5008309150339499e-02 0.0000000000000000e+00  1.8931792639040306e-02 3.3517874417317101e-02 0.0000000000000000e+00  1.6570685176815505e-02 3.1024762289745697e-02 0.0000000000000000e+00  1.4482284867110793e-02 2.7652537142500856e-02 0.0000000000000000e+00  1.2704595366317463e-02 2.3529874013630676e-02 0.0000000000000000e+00  1.1267704409143502e-02 1.8789269868389469e-02 0.0000000000000000e+00  1.0192519220822486e-02 1.3565828050198672e-02 0.0000000000000000e+00  9.4960958842554011e-03 7.9969896152730438e-03 0.0000000000000000e+00  9.1888276630009390e-03 2.2221629554109623e-03 0.0000000000000000e+00  9.2796242374420575e-03 -3.6169194040125930e-03 0.0000000000000000e+00  9.7716491877621291e-03 -9.3760289291033722e-03 0.0000000000000000e+00  1.0666431836024287e-02 -1.4908041077874220e-02 0.0000000000000000e+00  1.1958980312884539e-02 -2.0062715247432066e-02 0.0000000000000000e+00  1.3639746825576221e-02 -2.4686865976995445e-02 0.0000000000000000e+00  1.5689769847890771e-02 -2.8624789433981678e-02 0.0000000000000000e+00  1.8080571793925304e-02 -3.1719533002751148e-02 0.0000000000000000e+00  2.0769935368947813e-02 -3.3814632734074500e-02 0.0000000000000000e+00  2.3700476529422750e-02 -3.4756800520515094e-02 0.0000000000000000e+00  2.6796366414725090e-02 -3.4399272837978917e-02 0.0000000000000000e+00  2.9960252052071517e-02 -3.2606037020367386e-02 0.0000000000000000e+00  3.3062791207749166e-02 -2.9257149118199884e-02 0.0000000000000000e+00  3.5896654073654569e-02 -2.4257541128320226e-02 0.0000000000000000e+00  3.7956711630247018e-02 -1.7567090368276278e-02 0.0000000000000000e+00  3.7509729036034868e-02 -9.4232439530117194e-03 0.0000000000000000e+00  2.9663594396391418e-02 -2.9289519723248486e-03 0.0000000000000000e+00  4.4816238434030237e-02 1.0874324460177319e-02 0.0000000000000000e+00  3.8657548095219006e-02 4.1014099550066904e-03 0.0000000000000000e+00  4.4222255912910437e-02 1.9664320285281797e-02 0.0000000000000000e+00  4.2214764445884921e-02 2.6963504231315369e-02 0.0000000000000000e+00  3.9674079983521036e-02 3.2541518897062582e-02 0.0000000000000000e+00  3.6868346464486439e-02 3.6436687377798004e-02 0.0000000000000000e+00  3.3954091101565713e-02 3.8735593512395042e-02 0.0000000000000000e+00  3.1052330309013186e-02 3.9547284945304538e-02 0.0000000000000000e+00  2.8260388090914263e-02 3.8995704000730089e-02 0.0000000000000000e+00  2.5655571872916963e-02 3.7215114230073648e-02 0.0000000000000000e+00  2.3297306555559720e-02 3.4346190639790858e-02 0.0000000000000000e+00  2.1229603076577917e-02 3.0533149202732958e-02 0.0000000000000000e+00  1.9484510586557587e-02 2.5921546265220610e-02 0.0000000000000000e+00  1.8083898905664517e-02 2.0656911889774643e-02 0.0000000000000000e+00  1.7043930350205305e-02 1.4884336911518931e-02 0.0000000000000000e+00  1.6374670340711380e-02 8.7483355647100403e-03 0.0000000000000000e+00  1.6085450200509614e-02 2.3938811390563559e-03 0.0000000000000000e+00  1.6181646417393194e-02 -4.0329599972808361e-03 0.0000000000000000e+00  1.6669877954748898e-02 -1.0383238849210269e-02 0.0000000000000000e+00  1.7552691616464420e-02 -1.6504189499121226e-02 0.0000000000000000e+00  1.8832421075672300e-02 -2.2237639752974287e-02 0.0000000000000000e+00  2.0504946635231766e-02 -2.7419264276446434e-02 0.0000000000000000e+00  2.2560816923073997e-02 -3.1878185276809051e-02 0.0000000000000000e+00  2.4979486883740357e-02 -3.5437262938854255e-02 0.0000000000000000e+00  2.7727702714347536e-02 -3.7914661545223834e-02 0.0000000000000000e+00  3.0754735894229876e-02 -3.9126161130978693e-02 0.0000000000000000e+00  3.3989354704203521e-02 -3.8889083406366182e-02 0.0000000000000000e+00  3.7334591890177973e-02 -3.7027205732565349e-02 0.0000000000000000e+00  4.0654764893837507e-02 -3.3377682692036698e-02 0.0000000000000000e+00  4.3718829751730512e-02 -2.7802340486537565e-02 0.0000000000000000e+00  4.5932246375949767e-02 -2.0224970218927673e-02 0.0000000000000000e+00  4.5200846817078921e-02 -1.0900615597602801e-02 0.0000000000000000e+00  3.5551873608528545e-02 -3.5458897239475534e-03 0.0000000000000000e+00  5.3548276922990870e-02 1.2315022421777757e-02 0.0000000000000000e+00  4.5947407364606715e-02 4.8334414872789307e-03 0.0000000000000000e+00  5.3059468024450190e-02 2.2190256962863815e-02 0.0000000000000000e+00  5.0966340544689293e-02 3.0312399467322820e-02 0.0000000000000000e+00  4.8329606933530535e-02 3.6432151807856757e-02 0.0000000000000000e+00  4.5456504319627014e-02 4.0619382183445150e-02 0.0000000000000000e+00  4.2516021778004350e-02 4.2999124930836789e-02 0.0000000000000000e+00  3.9632630258783969e-02 4.3719134478543316e-02 0.0000000000000000e+00  3.6901451016164398e-02 4.2940143029138539e-02 0.0000000000000000e+00  3.4393174235440624e-02 4.0829296206733555e-02 0.0000000000000000e+00  3.2157461732748589e-02 3.7555600582501826e-02 0.0000000000000000e+00  3.0226757937170414e-02 3.3286095474187871e-02 0.0000000000000000e+00  2.8620474720769964e-02 2.8183922922704628e-02 0.0000000000000000e+00  2.7349004374959508e-02 2.2407022617235289e-02 0.0000000000000000e+00  2.6417131068143640e-02 1.6108407061425436e-02 0.0000000000000000e+00  2.5827597485787987e-02 9.4370764620710437e-03 0.0000000000000000e+00  2.5582619314553232e-02 2.5396392762539011e-03 0.0000000000000000e+00  2.5686972473607374e-02 -4.4371233216943130e-03 0.0000000000000000e+00  