<?xml version="1.0"?>
<VTKFile type="UnstructuredGrid"  version="0.1"  >
<UnstructuredGrid>
<Piece  NumberOfPoints="759" NumberOfCells="1408">
<Points>
<DataArray  type="Float64"  NumberOfComponents="3"  format="ascii">0 0.46875 0  0.03125 0.46875 0  0.03125 0.515625 0  0 0.515625 0  0.0625 0.46875 0  0.0625 0.515625 0  0.09375 0.46875 0  0.09375 0.515625 0  0.125 0.46875 0  0.125 0.515625 0  0.15625 0.46875 0  0.15625 0.515625 0  0.1875 0.46875 0  0.1875 0.515625 0  0.21875 0.46875 0  0.21875 0.515625 0  0.25 0.46875 0  0.25 0.515625 0  0.28125 0.46875 0  0.28125 0.515625 0  0.3125 0.46875 0  0.3125 0.515625 0  0.34375 0.46875 0  0.34375 0.515625 0  0.375 0.46875 0  0.375 0.515625 0  0.40625 0.46875 0  0.40625 0.515625 0  0.4375 0.46875 0  0.4375 0.515625 0  0.46875 0.46875 0  0.46875 0.515625 0  0.5 0.46875 0  0.5 0.515625 0  0.53125 0.46875 0  0.53125 0.515625 0  0.5625 0.46875 0  0.5625 0.515625 0  0.59375 0.46875 0  0.59375 0.515625 0  0.625 0.46875 0  0.625 0.515625 0  0.65625 0.46875 0  0.65625 0.515625 0  0.6875 0.46875 0  0.6875 0.515625 0  0.71875 0.46875 0  0.71875 0.515625 0  0.75 0.46875 0  0.75 0.515625 0  0.78125 0.46875 0  0.78125 0.515625 0  0.8125 0.46875 0  0.8125 0.515625 0  0.84375 0.46875 0  0.84375 0.515625 0  0.875 0.46875 0  0.875 0.515625 0  0.90625 0.46875 0  0.90625 0.515625 0  0.9375 0.46875 0  0.9375 0.515625 0  0.96875 0.46875 0  0.96875 0.515625 0  1 0.46875 0  1 0.515625 0  0.03125 0.5625 0  0 0.5625 0  0.0625 0.5625 0  0.09375 0.5625 0  0.125 0.5625 0  0.15625 0.5625 0  0.1875 0.5625 0  0.21875 0.5625 0  0.25 0.5625 0  0.28125 0.5625 0  0.3125 0.5625 0  0.34375 0.5625 0  0.375 0.5625 0  0.40625 0.5625 0  0.4375 0.5625 0  0.46875 0.5625 0  0.5 0.5625 0  0.53125 0.5625 0  0.5625 0.5625 0  0.59375 0.5625 0  0.625 0.5625 0  0.65625 0.5625 0  0.6875 0.5625 0  0.71875 0.5625 0  0.75 0.5625 0  0.78125 0.5625 0  0.8125 0.5625 0  0.84375 0.5625 0  0.875 0.5625 0  0.90625 0.5625 0  0.9375 0.5625 0  0.96875 0.5625 0  1 0.5625 0  0.03125 0.609375 0  0 0.609375 0  0.0625 0.609375 0  0.09375 0.609375 0  0.125 0.609375 0  0.15625 0.609375 0  0.1875 0.609375 0  0.21875 0.609375 0  0.25 0.609375 0  0.28125 0.609375 0  0.3125 0.609375 0  0.34375 0.609375 0  0.375 0.609375 0  0.40625 0.609375 0  0.4375 0.609375 0  0.46875 0.609375 0  0.5 0.609375 0  0.53125 0.609375 0  0.5625 0.609375 0  0.59375 0.609375 0  0.625 0.609375 0  0.65625 0.609375 0  0.6875 0.609375 0  0.71875 0.609375 0  0.75 0.609375 0  0.78125 0.609375 0  0.8125 0.609375 0  0.84375 0.609375 0  0.875 0.609375 0  0.90625 0.609375 0  0.9375 0.609375 0  0.96875 0.609375 0  1 0.609375 0  0.03125 0.65625 0  0 0.65625 0  0.0625 0.65625 0  0.09375 0.65625 0  0.125 0.65625 0  0.15625 0.65625 0  0.1875 0.65625 0  0.21875 0.65625 0  0.25 0.65625 0  0.28125 0.65625 0  0.3125 0.65625 0  0.34375 0.65625 0  0.375 0.65625 0  0.40625 0.65625 0  0.4375 0.65625 0  0.46875 0.65625 0  0.5 0.65625 0  0.53125 0.65625 0  0.5625 0.65625 0  0.59375 0.65625 0  0.625 0.65625 0  0.65625 0.65625 0  0.6875 0.65625 0  0.71875 0.65625 0  0.75 0.65625 0  0.78125 0.65625 0  0.8125 0.65625 0  0.84375 0.65625 0  0.875 0.65625 0  0.90625 0.65625 0  0.9375 0.65625 0  0.96875 0.65625 0  1 0.65625 0  0.03125 0.703125 0  0 0.703125 0  0.0625 0.703125 0  0.09375 0.703125 0  0.125 0.703125 0  0.15625 0.703125 0  0.1875 0.703125 0  0.21875 0.703125 0  0.25 0.703125 0  0.28125 0.703125 0  0.3125 0.703125 0  0.34375 0.703125 0  0.375 0.703125 0  0.40625 0.703125 0  0.4375 0.703125 0  0.46875 0.703125 0  0.5 0.703125 0  0.53125 0.703125 0  0.5625 0.703125 0  0.59375 0.703125 0  0.625 0.703125 0  0.65625 0.703125 0  0.6875 0.703125 0  0.71875 0.703125 0  0.75 0.703125 0  0.78125 0.703125 0  0.8125 0.703125 0  0.84375 0.703125 0  0.875 0.703125 0  0.90625 0.703125 0  0.9375 0.703125 0  0.96875 0.703125 0  1 0.703125 0  0.03125 0.75 0  0 0.75 0  0.0625 0.75 0  0.09375 0.75 0  0.125 0.75 0  0.15625 0.75 0  0.1875 0.75 0  0.21875 0.75 0  0.25 0.75 0  0.28125 0.75 0  0.3125 0.75 0  0.34375 0.75 0  0.375 0.75 0  0.40625 0.75 0  0.4375 0.75 0  0.46875 0.75 0  0.5 0.75 0  0.53125 0.75 0  0.5625 0.75 0  0.59375 0.75 0  0.625 0.75 0  0.65625 0.75 0  0.6875 0.75 0  0.71875 0.75 0  0.75 0.75 0  0.78125 0.75 0  0.8125 0.75 0  0.84375 0.75 0  0.875 0.75 0  0.90625 0.75 0  0.9375 0.75 0  0.96875 0.75 0  1 0.75 0  0.03125 0.796875 0  0 0.796875 0  0.0625 0.796875 0  0.09375 0.796875 0  0.125 0.796875 0  0.15625 0.796875 0  0.1875 0.796875 0  0.21875 0.796875 0  0.25 0.796875 0  0.28125 0.796875 0  0.3125 0.796875 0  0.34375 0.796875 0  0.375 0.796875 0  0.40625 0.796875 0  0.4375 0.796875 0  0.46875 0.796875 0  0.5 0.796875 0  0.53125 0.796875 0  0.5625 0.796875 0  0.59375 0.796875 0  0.625 0.796875 0  0.65625 0.796875 0  0.6875 0.796875 0  0.71875 0.796875 0  0.75 0.796875 0  0.78125 0.796875 0  0.8125 0.796875 0  0.84375 0.796875 0  0.875 0.796875 0  0.90625 0.796875 0  0.9375 0.796875 0  0.96875 0.796875 0  1 0.796875 0  0.03125 0.84375 0  0 0.84375 0  0.0625 0.84375 0  0.09375 0.84375 0  0.125 0.84375 0  0.15625 0.84375 0  0.1875 0.84375 0  0.21875 0.84375 0  0.25 0.84375 0  0.28125 0.84375 0  0.3125 0.84375 0  0.34375 0.84375 0  0.375 0.84375 0  0.40625 0.84375 0  0.4375 0.84375 0  0.46875 0.84375 0  0.5 0.84375 0  0.53125 0.84375 0  0.5625 0.84375 0  0.59375 0.84375 0  0.625 0.84375 0  0.65625 0.84375 0  0.6875 0.84375 0  0.71875 0.84375 0  0.75 0.84375 0  0.78125 0.84375 0  0.8125 0.84375 0  0.84375 0.84375 0  0.875 0.84375 0  0.90625 0.84375 0  0.9375 0.84375 0  0.96875 0.84375 0  1 0.84375 0  0.03125 0.890625 0  0 0.890625 0  0.0625 0.890625 0  0.09375 0.890625 0  0.125 0.890625 0  0.15625 0.890625 0  0.1875 0.890625 0  0.21875 0.890625 0  0.25 0.890625 0  0.28125 0.890625 0  0.3125 0.890625 0  0.34375 0.890625 0  0.375 0.890625 0  0.40625 0.890625 0  0.4375 0.890625 0  0.46875 0.890625 0  0.5 0.890625 0  0.53125 0.890625 0  0.5625 0.890625 0  0.59375 0.890625 0  0.625 0.890625 0  0.65625 0.890625 0  0.6875 0.890625 0  0.71875 0.890625 0  0.75 0.890625 0  0.78125 0.890625 0  0.8125 0.890625 0  0.84375 0.890625 0  0.875 0.890625 0  0.90625 0.890625 0  0.9375 0.890625 0  0.96875 0.890625 0  1 0.890625 0  0.03125 0.9375 0  0 0.9375 0  0.0625 0.9375 0  0.09375 0.9375 0  0.125 0.9375 0  0.15625 0.9375 0  0.1875 0.9375 0  0.21875 0.9375 0  0.25 0.9375 0  0.28125 0.9375 0  0.3125 0.9375 0  0.34375 0.9375 0  0.375 0.9375 0  0.40625 0.9375 0  0.4375 0.9375 0  0.46875 0.9375 0  0.5 0.9375 0  0.53125 0.9375 0  0.5625 0.9375 0  0.59375 0.9375 0  0.625 0.9375 0  0.65625 0.9375 0  0.6875 0.9375 0  0.71875 0.9375 0  0.75 0.9375 0  0.78125 0.9375 0  0.8125 0.9375 0  0.84375 0.9375 0  0.875 0.9375 0  0.90625 0.9375 0  0.9375 0.9375 0  0.96875 0.9375 0  1 0.9375 0  0.03125 0.984375 0  0 0.984375 0  0.0625 0.984375 0  0.09375 0.984375 0  0.125 0.984375 0  0.15625 0.984375 0  0.1875 0.984375 0  0.21875 0.984375 0  0.25 0.984375 0  0.28125 0.984375 0  0.3125 0.984375 0  0.34375 0.984375 0  0.375 0.984375 0  0.40625 0.984375 0  0.4375 0.984375 0  0.46875 0.984375 0  0.5 0.984375 0  0.53125 0.984375 0  0.5625 0.984375 0  0.59375 0.984375 0  0.625 0.984375 0  0.65625 0.984375 0  0.6875 0.984375 0  0.71875 0.984375 0  0.75 0.984375 0  0.78125 0.984375 0  0.8125 0.984375 0  0.84375 0.984375 0  0.875 0.984375 0  0.90625 0.984375 0  0.9375 0.984375 0  0.96875 0.984375 0  1 0.984375 0  0.03125 1.03125 0  0 1.03125 0  0.0625 1.03125 0  0.09375 1.03125 0  0.125 1.03125 0  0.15625 1.03125 0  0.1875 1.03125 0  0.21875 1.03125 0  0.25 1.03125 0  0.28125 1.03125 0  0.3125 1.03125 0  0.34375 1.03125 0  0.375 1.03125 0  0.40625 1.03125 0  0.4375 1.03125 0  0.46875 1.03125 0  0.5 1.03125 0  0.53125 1.03125 0  0.5625 1.03125 0  0.59375 1.03125 0  0.625 1.03125 0  0.65625 1.03125 0  0.6875 1.03125 0  0.71875 1.03125 0  0.75 1.03125 0  0.78125 1.03125 0  0.8125 1.03125 0  0.84375 1.03125 0  0.875 1.03125 0  0.90625 1.03125 0  0.9375 1.03125 0  0.96875 1.03125 0  1 1.03125 0  0.03125 1.078125 0  0 1.078125 0  0.0625 1.078125 0  0.09375 1.078125 0  0.125 1.078125 0  0.15625 1.078125 0  0.1875 1.078125 0  0.21875 1.078125 0  0.25 1.078125 0  0.28125 1.078125 0  0.3125 1.078125 0  0.34375 1.078125 0  0.375 1.078125 0  0.40625 1.078125 0  0.4375 1.078125 0  0.46875 1.078125 0  0.5 1.078125 0  0.53125 1.078125 0  0.5625 1.078125 0  0.59375 1.078125 0  0.625 1.078125 0  0.65625 1.078125 0  0.6875 1.078125 0  0.71875 1.078125 0  0.75 1.078125 0  0.78125 1.078125 0  0.8125 1.078125 0  0.84375 1.078125 0  0.875 1.078125 0  0.90625 1.078125 0  0.9375 1.078125 0  0.96875 1.078125 0  1 1.078125 0  0.03125 1.125 0  0 1.125 0  0.0625 1.125 0  0.09375 1.125 0  0.125 1.125 0  0.15625 1.125 0  0.1875 1.125 0  0.21875 1.125 0  0.25 1.125 0  0.28125 1.125 0  0.3125 1.125 0  0.34375 1.125 0  0.375 1.125 0  0.40625 1.125 0  0.4375 1.125 0  0.46875 1.125 0  0.5 1.125 0  0.53125 1.125 0  0.5625 1.125 0  0.59375 1.125 0  0.625 1.125 0  0.65625 1.125 0  0.6875 1.125 0  0.71875 1.125 0  0.75 1.125 0  0.78125 1.125 0  0.8125 1.125 0  0.84375 1.125 0  0.875 1.125 0  0.90625 1.125 0  0.9375 1.125 0  0.96875 1.125 0  1 1.125 0  0.03125 1.171875 0  0 1.171875 0  0.0625 1.171875 0  0.09375 1.171875 0  0.125 1.171875 0  0.15625 1.171875 0  0.1875 1.171875 0  0.21875 1.171875 0  0.25 1.171875 0  0.28125 1.171875 0  0.3125 1.171875 0  0.34375 1.171875 0  0.375 1.171875 0  0.40625 1.171875 0  0.4375 1.171875 0  0.46875 1.171875 0  0.5 1.171875 0  0.53125 1.171875 0  0.5625 1.171875 0  0.59375 1.171875 0  0.625 1.171875 0  0.65625 1.171875 0  0.6875 1.171875 0  0.71875 1.171875 0  0.75 1.171875 0  0.78125 1.171875 0  0.8125 1.171875 0  0.84375 1.171875 0  0.875 1.171875 0  0.90625 1.171875 0  0.9375 1.171875 0  0.96875 1.171875 0  1 1.171875 0  0.03125 1.21875 0  0 1.21875 0  0.0625 1.21875 0  0.09375 1.21875 0  0.125 1.21875 0  0.15625 1.21875 0  0.1875 1.21875 0  0.21875 1.21875 0  0.25 1.21875 0  0.28125 1.21875 0  0.3125 1.21875 0  0.34375 1.21875 0  0.375 1.21875 0  0.40625 1.21875 0  0.4375 1.21875 0  0.46875 1.21875 0  0.5 1.21875 0  0.53125 1.21875 0  0.5
[...]
<PointData  Vectors="u"> 
<DataArray  type="Float64"  Name="u"  NumberOfComponents="3" format="ascii">1.0606043955106361e-02 6.6427415153069366e-04 0.0000000000000000e+00  1.1888948452630985e-02 3.2638115403155030e-03 0.0000000000000000e+00  1.3175807916862037e-02 3.5375250405848234e-03 0.0000000000000000e+00  1.1652966204603953e-02 8.7545401080673030e-04 0.0000000000000000e+00  1.1249784793294358e-02 5.8816443360654724e-03 0.0000000000000000e+00  1.2643383968228237e-02 6.4529753628046358e-03 0.0000000000000000e+00  1.0141476362746121e-02 8.2104909046950315e-03 0.0000000000000000e+00  1.1394748785711927e-02 9.0138769567189893e-03 0.0000000000000000e+00  8.7281292510616622e-03 1.0148987318578755e-02 0.0000000000000000e+00  9.8189476042104297e-03 1.1125361212420583e-02 0.0000000000000000e+00  7.1049964128829263e-03 1.1645725097031941e-02 0.0000000000000000e+00  8.0441779078717825e-03 1.2739425570348240e-02 0.0000000000000000e+00  5.3537234519992500e-03 1.2668198964652815e-02 0.0000000000000000e+00  6.1549214689254322e-03 1.3828633169203063e-02 0.0000000000000000e+00  3.5470250843276240e-03 1.3200864299600767e-02 0.0000000000000000e+00  4.2240078144837627e-03 1.4382816285906470e-02 0.0000000000000000e+00  1.7498162425003084e-03 1.3244471264052135e-02 0.0000000000000000e+00  2.3160646805608287e-03 1.4407800077881380e-02 0.0000000000000000e+00  1.9718289894567285e-05 1.2814743867416680e-02 0.0000000000000000e+00  4.8807879290425964e-04 1.3924135521819833e-02 0.0000000000000000e+00  -1.5926603521482837e-03 1.1940810878518381e-02 0.0000000000000000e+00  -1.2099870990635558e-03 1.2965486223207132e-02 0.0000000000000000e+00  -3.0434427843413847e-03 1.0663425029893561e-02 0.0000000000000000e+00  -2.7350963822012370e-03 1.1576959104399022e-02 0.0000000000000000e+00  -4.2952893092643727e-03 9.0332426001299791e-03 0.0000000000000000e+00  -4.0506783493164207e-03 9.8133346529155011e-03 0.0000000000000000e+00  -5.3171494840939222e-03 7.1090774360239653e-03 0.0000000000000000e+00  -5.1265374087446965e-03 7.7374295106383065e-03 0.0000000000000000e+00  -6.0841316057378405e-03 4.9563051863434852e-03 0.0000000000000000e+00  -5.9385535322426112e-03 5.4184664742214870e-03 0.0000000000000000e+00  -6.5773625922148039e-03 2.6452892460952630e-03 0.0000000000000000e+00  -6.4686663684616064e-03 2.9306111478618539e-03 0.0000000000000000e+00  -6.7839169398260894e-03 2.4993500887517768e-04 0.0000000000000000e+00  -6.7046811721953288e-03 3.5151709182861657e-04 0.0000000000000000e+00  -6.6967826078535454e-03 -2.1537541388635998e-03 0.0000000000000000e+00  -6.6403634735165149e-03 -2.2390102376738138e-03 0.0000000000000000e+00  -6.3149289735770532e-03 -4.4890681202216327e-03 0.0000000000000000e+00  -6.2754497883790242e-03 -4.7603925263739917e-03 0.0000000000000000e+00  -5.6434014947227959e-03 -6.6800448208279512e-03 0.0000000000000000e+00  -5.6158590902721725e-03 -7.1326363730564229e-03 0.0000000000000000e+00  -4.6934956211454422e-03 -8.6529594044200339e-03 0.0000000000000000e+00  -4.6738476146828247e-03 -9.2778071187000436e-03 0.0000000000000000e+00  -3.4829783654885460e-03 -1.0337948888634216e-02 0.0000000000000000e+00  -3.4683861286729893e-03 -1.1121574922192982e-02 0.0000000000000000e+00  -2.0363791336442932e-03 -1.1670734269628197e-02 0.0000000000000000e+00  -2.0254480537952725e-03 -1.2594939654438256e-02 0.0000000000000000e+00  -3.8524547520132777e-04 -1.2594519522603398e-02 0.0000000000000000e+00  -3.7844421520160894e-04 -1.3636077085637483e-02 0.0000000000000000e+00  1.4315558868399319e-03 -1.3061993753012717e-02 0.0000000000000000e+00  1.4314813105639314e-03 -1.4192371304166836e-02 0.0000000000000000e+00  3.3675856587488551e-03 -1.3037476048423370e-02 0.0000000000000000e+00  3.3550182625476607e-03 -1.4222531849960732e-02 0.0000000000000000e+00  5.3684359027504416e-03 -1.2499093600664557e-02 0.0000000000000000e+00  5.3344030250381926e-03 -1.3698804043850415e-02 0.0000000000000000e+00  7.3706910783823297e-03 -1.1441006766467015e-02 0.0000000000000000e+00  7.3025142557668083e-03 -1.2609133299381035e-02 0.0000000000000000e+00  9.2976682134284349e-03 -9.8757019189797922e-03 0.0000000000000000e+00  9.1798982499329204e-03 -1.0959333639263449e-02 0.0000000000000000e+00  1.1040708300107442e-02 -7.8372428949269549e-03 0.0000000000000000e+00  1.0860800087626426e-02 -8.7757707527400652e-03 0.0000000000000000e+00  1.2379170719254347e-02 -5.3914639701439903e-03 0.0000000000000000e+00  1.2151700996210830e-02 -6.1131823823121290e-03 0.0000000000000000e+00  1.2709668250946849e-02 -2.7013367493286299e-03 0.0000000000000000e+00  1.2536487958735677e-02 -3.1037963398730388e-03 0.0000000000000000e+00  1.1059336497882537e-02 -2.9033726715768573e-04 0.0000000000000000e+00  1.0718320458504101e-02 -3.9134564389624950e-04 0.0000000000000000e+00  1.4936141064291671e-02 4.3052696672440608e-03 0.0000000000000000e+00  1.3360616035999608e-02 1.3220713234927295e-03 0.0000000000000000e+00  1.4281761138971422e-02 7.8512910855758292e-03 0.0000000000000000e+00  1.2947271082243013e-02 1.0920322537722070e-02 0.0000000000000000e+00  1.1256864214798500e-02 1.3402652981929677e-02 0.0000000000000000e+00  9.3489538597955456e-03 1.5261709546126837e-02 0.0000000000000000e+00  7.3192342966445379e-03 1.6482463030707849e-02 0.0000000000000000e+00  5.2473692856728777e-03 1.7066755158152456e-02 0.0000000000000000e+00  3.2029036121514302e-03 1.7032059528486299e-02 0.0000000000000000e+00  1.2470865098056093e-03 1.6410021640177838e-02 0.0000000000000000e+00  -5.6712347010958884e-04 1.5244918717782090e-02 0.0000000000000000e+00  -2.1941667907332246e-03 1.3591890387926948e-02 0.0000000000000000e+00  -3.5959081964277743e-03 1.1515318412835577e-02 0.0000000000000000e+00  -4.7408113966350852e-03 9.0871251335668101e-03 0.0000000000000000e+00  -5.6040316101868852e-03 6.3853495423026778e-03 0.0000000000000000e+00  -6.1667955897327219e-03 3.4926727569593269e-03 0.0000000000000000e+00  -6.4165255648975230e-03 4.9521032970283757e-04 0.0000000000000000e+00  -6.3465371498411414e-03 -2.5187824946398402e-03 0.0000000000000000e+00  -5.9563472319956005e-03 -5.4600349088508339e-03 0.0000000000000000e+00  -5.2516338566839533e-03 -8.2395480227560186e-03 0.0000000000000000e+00  -4.2447435035794304e-03 -1.0769845188645167e-02 0.0000000000000000e+00  -2.9549221620738895e-03 -1.2966458517693990e-02 0.0000000000000000e+00  -1.4090273085512201e-03 -1.4749493439285473e-02 0.0000000000000000e+00  3.5815131276688647e-04 -1.6045465209748325e-02 0.0000000000000000e+00  2.3031151765270739e-03 -1.6789247908801555e-02 0.0000000000000000e+00  4.3733468130298042e-03 -1.6926240177642406e-02 0.0000000000000000e+00  6.5065680827102214e-03 -1.6414546285895327e-02 0.0000000000000000e+00  8.6299568464669948e-03 -1.5227192867982043e-02 0.0000000000000000e+00  1.0656426059888410e-02 -1.3354262105741930e-02 0.0000000000000000e+00  1.2468545751561888e-02 -1.0805715406539660e-02 0.0000000000000000e+00  1.3843903813079718e-02 -7.6207886756541575e-03 0.0000000000000000e+00  1.4153515400357430e-02 -3.9397858020847054e-03 0.0000000000000000e+00  1.1773771575118377e-02 -8.0816675245813500e-04 0.0000000000000000e+00  1.7628323057067498e-02 5.2397313356877719e-03 0.0000000000000000e+00  1.5809623278107240e-02 1.7715027605693630e-03 0.0000000000000000e+00  1.6882570405559856e-02 9.5295869942468997e-03 0.0000000000000000e+00  1.5414345652646523e-02 1.3200929011169911e-02 0.0000000000000000e+00  1.3563137077328475e-02 1.6123307694084574e-02 0.0000000000000000e+00  1.1475065033807772e-02 1.8271133150320685e-02 0.0000000000000000e+00  9.2545438818607169e-03 1.9644036655921453e-02 0.0000000000000000e+00  6.9898678710978981e-03 2.0258881896060840e-02 0.0000000000000000e+00  4.7584550868383273e-03 2.0147721500160896e-02 0.0000000000000000e+00  2.6271164706938043e-03 1.9356195705698999e-02 0.0000000000000000e+00  6.5374806866545343e-04 1.7941762191138525e-02 0.0000000000000000e+00  -1.1131240408750692e-03 1.5971997908590236e-02 0.0000000000000000e+00  -2.6326541076752245e-03 1.3522827360153785e-02 0.0000000000000000e+00  -3.8720454379792832e-03 1.0677058967486993e-02 0.0000000000000000e+00  -4.8050707259636198e-03 7.5228808594582225e-03 0.0000000000000000e+00  -5.4124679065153348e-03 4.1527624307504075e-03 0.0000000000000000e+00  -5.6808087036579183e-03 6.6223908928822114e-04 0.0000000000000000e+00  -5.6030736758939208e-03 -2.8509297420085452e-03 0.0000000000000000e+00  -5.1780593592408207e-03 -6.2878322967356865e-03 0.0000000000000000e+00  -4.4111663208123075e-03 -9.5492453015586197e-03 0.0000000000000000e+00  -3.3142938121264068e-03 -1.2536808799389810e-02 0.0000000000000000e+00  -1.9069468010575669e-03 -1.5154153695408512e-02 0.0000000000000000e+00  -2.1649294570960133e-04 -1.7308418999584695e-02 0.0000000000000000e+00  1.7205663645115238e-03 -1.8911872282321295e-02 0.0000000000000000e+00  3.8582178725773400e-03 -1.9883895198731922e-02 0.0000000000000000e+00  6.1396816531312593e-03 -2.0153100271555837e-02 0.0000000000000000e+00  8.4970925924364310e-03 -1.9659665650097642e-02 0.0000000000000000e+00  1.0849799253253970e-02 -1.8357679808369214e-02 0.0000000000000000e+00  1.3100416699497490e-02 -1.6217630534014489e-02 0.0000000000000000e+00  1.5114294155286449e-02 -1.3229992463652048e-02 0.0000000000000000e+00  1.6625597778317611e-02 -9.4183813067276034e-03 0.0000000000000000e+00  1.6852777802370378e-02 -4.9424149453869953e-03 0.0000000000000000e+00  1.3805832393065201e-02 -1.2766839883214681e-03 0.0000000000000000e+00  2.1271315975950996e-02 6.2880535428175548e-03 0.0000000000000000e+00  1.9032559965741581e-02 2.2440703254718386e-03 0.0000000000000000e+00  2.0452836041039694e-02 1.1407143720050764e-02 0.0000000000000000e+00  1.8831368680147387e-02 1.5745681983351429e-02 0.0000000000000000e+00  1.6791617685310036e-02 1.9152009144528710e-02 0.0000000000000000e+00  1.4493718733407053e-02 2.1613406297478557e-02 0.0000000000000000e+00  1.2053434417475268e-02 2.3146480441277758e-02 0.0000000000000000e+00  9.5696070227200333e-03 2.3785746230373776e-02 0.0000000000000000e+00  7.1272684899504985e-03 2.3580596961421993e-02 0.0000000000000000e+00  4.8003263024977956e-03 2.2593255450750412e-02 0.0000000000000000e+00  2.6506974959267962e-03 2.0896728615768370e-02 0.0000000000000000e+00  7.3084758637944973e-04 1.8572922065748523e-02 0.0000000000000000e+00  -9.1705550484628084e-04 1.5710904727497504e-02 0.0000000000000000e+00  -2.2583394662470538e-03 1.2405377141922767e-02 0.0000000000000000e+00  -3.2668176151869127e-03 8.7554989105492545e-03 0.0000000000000000e+00  -3.9222337288230148e-03 4.8637938169593629e-03 0.0000000000000000e+00  -4.2113968409855400e-03 8.3550878936826172e-04 0.0000000000000000e+00  -4.1262836981365283e-03 -3.2221787096129171e-03 0.0000000000000000e+00  -3.6655038742455545e-03 -7.2005330100510974e-03 0.0000000000000000e+00  -2.8331988865276931e-03 -1.0990019534073926e-02 0.0000000000000000e+00  -1.6408243163751335e-03 -1.4480821088206390e-02 0.0000000000000000e+00  -1.0689220403997749e-04 -1.7563882153727468e-02 0.0000000000000000e+00  1.7409606011513097e-03 -2.0131961324971595e-02 0.0000000000000000e+00  3.8657497086665451e-03 -2.2081227864316363e-02 0.0000000000000000e+00  6.2190456320026398e-03 -2.3313071618006571e-02 0.0000000000000000e+00  8.7405794162146114e-03 -2.3736354635771874e-02 0.0000000000000000e+00  1.1356436568802327e-02 -2.3269910764041838e-02 0.0000000000000000e+00  1.3977997435891459e-02 -2.1845304746731010e-02 0.0000000000000000e+00  1.6495976895981024e-02 -1.9409965180125856e-02 0.0000000000000000e+00  1.8755598569089909e-02 -1.5932098032609858e-02 0.0000000000000000e+00  2.0437403989088176e-02 -1.1418498248644791e-02 0.0000000000000000e+00  2.0570525538837321e-02 -6.0506959846909391e-03 0.0000000000000000e+00  1.6673392521048484e-02 -1.7494874931722798e-03 0.0000000000000000e+00  2.5922831496497170e-02 7.4517178613786048e-03 0.0000000000000000e+00  2.3079001143913432e-02 2.7623872878061654e-03 0.0000000000000000e+00  2.5051714720816257e-02 1.3484750651076658e-02 0.0000000000000000e+00  2.3266566925008687e-02 1.8552821403561581e-02 0.0000000000000000e+00  2.1024856525602313e-02 2.2483140035946658e-02 0.0000000000000000e+00  1.8506766403985710e-02 2.5277925047894046e-02 0.0000000000000000e+00  1.5841620141605055e-02 2.6973862670990230e-02 0.0000000000000000e+00  1.3137870359974543e-02 2.7626381555667500e-02 0.0000000000000000e+00  1.0489220299540612e-02 2.7305566155584785e-02 0.0000000000000000e+00  7.9743782038275909e-03 2.6093239748532133e-02 0.0000000000000000e+00  5.6598704771315071e-03 2.4080644943730550e-02 0.0000000000000000e+00  3.5990850525437403e-03 2.1366130066647355e-02 0.0000000000000000e+00  1.8360264613590420e-03 1.8053453878559989e-02 0.0000000000000000e+00  4.0408478745923115e-04 1.4250228975942454e-02 0.0000000000000000e+00  -6.6987093073612384e-04 1.0066969950507132e-02 0.0000000000000000e+00  -1.3673342479248798e-03 5.6163801790663605e-03 0.0000000000000000e+00  -1.6742315326565877e-03 1.0129784257426465e-03 0.0000000000000000e+00  -1.5834287764869160e-03 -3.6269659264882028e-03 0.0000000000000000e+00  -1.0917254731326719e-03 -8.1855655331808438e-03 0.0000000000000000e+00  -2.0279780693257006e-04 -1.2543168212663030e-02 0.0000000000000000e+00  1.0745132852759966e-03 -1.6578674079970816e-02 0.0000000000000000e+00  2.7229339615550399e-03 -2.0169763367858938e-02 0.0000000000000000e+00  4.7171198105951063e-03 -2.3193812485215820e-02 0.0000000000000000e+00  7.0204688082971551e-03 -2.5529023143942210e-02 0.0000000000000000e+00  9.5846491458319964e-03 -2.7056246036724761e-02 0.0000000000000000e+00  1.2346802235888117e-02 -2.7661260813323516e-02 0.0000000000000000e+00  1.5228814270363432e-02 -2.7237613088236228e-02 0.0000000000000000e+00  1.8134291230577887e-02 -2.5689978606860352e-02 0.0000000000000000e+00  2.0942227832731714e-02 -2.2938219429117387e-02 0.0000000000000000e+00  2.3474822679827860e-02 -1.8924061554681706e-02 0.0000000000000000e+00  2.5348355535276590e-02 -1.3634209735318805e-02 0.0000000000000000e+00  2.5357719369389856e-02 -7.2728559836772481e-03 0.0000000000000000e+00  2.0382903948559166e-02 -2.2458786870292371e-03 0.0000000000000000e+00  3.1690429295319004e-02 8.7350699083890010e-03 0.0000000000000000e+00  2.8033121194877834e-02 3.3440197851063213e-03 0.0000000000000000e+00  3.0793563022931784e-02 1.5766275589534591e-02 0.0000000000000000e+00  2.8845107082403603e-02 2.1623203305768772e-02 0.0000000000000000e+00  2.6403238231363667e-02 2.6111449924157842e-02 0.0000000000000000e+00  2.3675002278770736e-02 2.9251753941695786e-02 0.0000000000000000e+00  2.0803405236524377e-02 3.1105022595589209e-02 0.0000000000000000e+00  1.7907017874932055e-02 3.1752032798143912e-02 0.0000000000000000e+00  1.5085438485361495e-02 3.1287639902948923e-02 0.0000000000000000e+00  1.2421725702399930e-02 2.9817093119283100e-02 0.0000000000000000e+00  9.9827799155195220e-03 2.7452843412872040e-02 0.0000000000000000e+00  7.8224831427989618e-03 2.4312119011441247e-02 0.0000000000000000e+00  5.9817432125289149e-03 2.0514787028964098e-02 0.0000000000000000e+00  4.4929957160161123e-03 1.6182203031453058e-02 0.0000000000000000e+00  3.3789574621975859e-03 1.1436220370203126e-02 0.0000000000000000e+00  2.6578540185540319e-03 6.3992066808041016e-03 0.0000000000000000e+00  2.3406433609649696e-03 1.1940204169669426e-03 0.0000000000000000e+00  2.4361091146861483e-03 -4.0552520706857243e-03 0.0000000000000000e+00  2.9466745645390312e-03 -9.2227148835329186e-03 0.0000000000000000e+00  3.8724390092440028e-03 -1.4179839887884835e-02 0.0000000000000000e+00  5.2063774605554027e-03 -1.8794828391816957e-02 0.0000000000000000e+00  6.9362912703388969e-03 -2.2932372044101458e-02 0.0000000000000000e+00  9.0400526697886358e-03 -2.6453702745160044e-02 0.0000000000000000e+00  1.1485525848684144e-02 -2.9217515474494037e-02 0.0000000000000000e+00  1.4226461279559342e-02 -3.1081415867295854e-02 0.0000000000000000e+00  1.7201150885696067e-02 -3.1904372169958527e-02 0.0000000000000000e+00  2.0329279709427217e-02 -3.1549902009749477e-02 0.0000000000000000e+00  2.3509152387083947e-02 -2.9890212390826586e-02 0.0000000000000000e+00  2.6608454916590581e-02 -2.6811501463181339e-02 0.0000000000000000e+00  2.9424528326688459e-02 -2.2222732199577586e-02 0.0000000000000000e+00  3.1497059807675823e-02 -1.6084928095269357e-02 0.0000000000000000e+00  3.1334097563841229e-02 -8.6245521497315108e-03 0.0000000000000000e+00  2.5005591494775600e-02 -2.7905102751464572e-03 0.0000000000000000e+00  3.8720717139012970e-02 1.0136752421268687e-02 0.0000000000000000e+00  3.4007114648967829e-02 4.0030457663293075e-03 0.0000000000000000e+00  3.7835908406546111e-02 1.8244538860023491e-02 0.0000000000000000e+00  3.5736645442393911e-02 2.4939919245980435e-02 0.0000000000000000e+00  3.3113904861443715e-02 3.0007153912804323e-02 0.0000000000000000e+00  3.0207597394859381e-02 3.3490839844774002e-02 0.0000000000000000e+00  2.7175323101238394e-02 3.5482064805944818e-02 0.0000000000000000e+00  2.4143905081347776e-02 3.6092822545333164e-02 0.0000000000000000e+00  2.1216870407024160e-02 3.5448141151694826e-02 0.0000000000000000e+00  1.8477323025353716e-02 3.3681231174733789e-02 0.0000000000000000e+00  1.5989927807423227e-02 3.0929401542005956e-02 0.0000000000000000e+00  1.3803341788440187e-02 2.7331116812543358e-02 0.0000000000000000e+00  1.1953607671060219e-02 2.3023829636667797e-02 0.0000000000000000e+00  1.0465913784420099e-02 1.8142738988839897e-02 0.0000000000000000e+00  9.3590041927835623e-03 1.2820577912648944e-02 0.0000000000000000e+00  8.6447981677641554e-03 7.1877510692225097e-03 0.0000000000000000e+00  8.3336502283605958e-03 1.3736879723109171e-03 0.0000000000000000e+00  8.4311858401994767e-03 -4.4921547572168430e-03 0.0000000000000000e+00  8.9434065035676087e-03 -1.0278125772661637e-02 0.0000000000000000e+00  9.8714451487582205e-03 -1.5849043873061804e-02 0.0000000000000000e+00  1.1215341385388081e-02 -2.1064222353730774e-02 0.0000000000000000e+00  1.2967900014656942e-02 -2.5776350209520009e-02 0.0000000000000000e+00  1.5115783278426508e-02 -2.9830751647017678e-02 0.0000000000000000e+00  1.7633825784882318e-02 -3.3065383627557905e-02 0.0000000000000000e+00  2.0483455664719187e-02 -3.5312153835931004e-02 0.0000000000000000e+00  2.3608023629942274e-02 -3.6399055687849853e-02 0.0000000000000000e+00  2.6929858122318358e-02 -3.6153977588434603e-02 0.0000000000000000e+00  3.0345338169084867e-02 -3.4409578522434384e-02 0.0000000000000000e+00  3.3713175475455805e-02 -3.1010225659020348e-02 0.0000000000000000e+00  3.6804379326969075e-02 -2.5823282164404052e-02 0.0000000000000000e+00  3.9068648220380434e-02 -1.8775667596782543e-02 0.0000000000000000e+00  3.8665458803334031e-02 -1.0114096466593173e-02 0.0000000000000000e+00  3.0652503125072637e-02 -3.4036397260454139e-03 0.0000000000000000e+00  4.7192268162357234e-02 1.1647735507801359e-02 0.0000000000000000e+00  4.1135474479790796e-02 4.7514531732247740e-03 0.0000000000000000e+00  4.6370563197804762e-02 2.0896712253588204e-02 0.0000000000000000e+00  4.4147156653407835e-02 2.8461775458012255e-02 0.0000000000000000e+00  4.1382842054811901e-02 3.4107491090212265e-02 0.0000000000000000e+00  3.8356990592118605e-02 3.7910001920788965e-02 0.0000000000000000e+00  3.5241806018344153e-02 3.9999041177192968e-02 0.0000000000000000e+00  3.2169760478196051e-02 4.0525655019149565e-02 0.0000000000000000e+00  2.9244151263079943e-02 3.9652138278849225e-02 0.0000000000000000e+00  2.6543206855803202e-02 3.7545190811450670e-02 0.0000000000000000e+00  2.4123361536384516e-02 3.4371174869282678e-02 0.0000000000000000e+00  2.2023052480250698e-02 3.0292214542002427e-02 0.0000000000000000e+00  2.0266871835182696e-02 2.5464283850391466e-02 0.0000000000000000e+00  1.8869551398461352e-02 2.0036021989047085e-02 0.0000000000000000e+00  1.7839352893378881e-02 1.4149197495403608e-02 0.0000000000000000e+00  1.7181590037427676e-02 7.9398833946739515e-03 0.0000000000000000e+00  1.6900113696844413e-02 1.5403898775496808e-03 0.0000000000000000e+00  1.7000344609745068e-02 -4.91783