<?xml version="1.0"?>
<VTKFile type="UnstructuredGrid"  version="0.1"  >
<UnstructuredGrid>
<Piece  NumberOfPoints="759" NumberOfCells="1408">
<Points>
<DataArray  type="Float64"  NumberOfComponents="3"  format="ascii">0 0.46875 0  0.03125 0.46875 0  0.03125 0.515625 0  0 0.515625 0  0.0625 0.46875 0  0.0625 0.515625 0  0.09375 0.46875 0  0.09375 0.515625 0  0.125 0.46875 0  0.125 0.515625 0  0.15625 0.46875 0  0.15625 0.515625 0  0.1875 0.46875 0  0.1875 0.515625 0  0.21875 0.46875 0  0.21875 0.515625 0  0.25 0.46875 0  0.25 0.515625 0  0.28125 0.46875 0  0.28125 0.515625 0  0.3125 0.46875 0  0.3125 0.515625 0  0.34375 0.46875 0  0.34375 0.515625 0  0.375 0.46875 0  0.375 0.515625 0  0.40625 0.46875 0  0.40625 0.515625 0  0.4375 0.46875 0  0.4375 0.515625 0  0.46875 0.46875 0  0.46875 0.515625 0  0.5 0.46875 0  0.5 0.515625 0  0.53125 0.46875 0  0.53125 0.515625 0  0.5625 0.46875 0  0.5625 0.515625 0  0.59375 0.46875 0  0.59375 0.515625 0  0.625 0.46875 0  0.625 0.515625 0  0.65625 0.46875 0  0.65625 0.515625 0  0.6875 0.46875 0  0.6875 0.515625 0  0.71875 0.46875 0  0.71875 0.515625 0  0.75 0.46875 0  0.75 0.515625 0  0.78125 0.46875 0  0.78125 0.515625 0  0.8125 0.46875 0  0.8125 0.515625 0  0.84375 0.46875 0  0.84375 0.515625 0  0.875 0.46875 0  0.875 0.515625 0  0.90625 0.46875 0  0.90625 0.515625 0  0.9375 0.46875 0  0.9375 0.515625 0  0.96875 0.46875 0  0.96875 0.515625 0  1 0.46875 0  1 0.515625 0  0.03125 0.5625 0  0 0.5625 0  0.0625 0.5625 0  0.09375 0.5625 0  0.125 0.5625 0  0.15625 0.5625 0  0.1875 0.5625 0  0.21875 0.5625 0  0.25 0.5625 0  0.28125 0.5625 0  0.3125 0.5625 0  0.34375 0.5625 0  0.375 0.5625 0  0.40625 0.5625 0  0.4375 0.5625 0  0.46875 0.5625 0  0.5 0.5625 0  0.53125 0.5625 0  0.5625 0.5625 0  0.59375 0.5625 0  0.625 0.5625 0  0.65625 0.5625 0  0.6875 0.5625 0  0.71875 0.5625 0  0.75 0.5625 0  0.78125 0.5625 0  0.8125 0.5625 0  0.84375 0.5625 0  0.875 0.5625 0  0.90625 0.5625 0  0.9375 0.5625 0  0.96875 0.5625 0  1 0.5625 0  0.03125 0.609375 0  0 0.609375 0  0.0625 0.609375 0  0.09375 0.609375 0  0.125 0.609375 0  0.15625 0.609375 0  0.1875 0.609375 0  0.21875 0.609375 0  0.25 0.609375 0  0.28125 0.609375 0  0.3125 0.609375 0  0.34375 0.609375 0  0.375 0.609375 0  0.40625 0.609375 0  0.4375 0.609375 0  0.46875 0.609375 0  0.5 0.609375 0  0.53125 0.609375 0  0.5625 0.609375 0  0.59375 0.609375 0  0.625 0.609375 0  0.65625 0.609375 0  0.6875 0.609375 0  0.71875 0.609375 0  0.75 0.609375 0  0.78125 0.609375 0  0.8125 0.609375 0  0.84375 0.609375 0  0.875 0.609375 0  0.90625 0.609375 0  0.9375 0.609375 0  0.96875 0.609375 0  1 0.609375 0  0.03125 0.65625 0  0 0.65625 0  0.0625 0.65625 0  0.09375 0.65625 0  0.125 0.65625 0  0.15625 0.65625 0  0.1875 0.65625 0  0.21875 0.65625 0  0.25 0.65625 0  0.28125 0.65625 0  0.3125 0.65625 0  0.34375 0.65625 0  0.375 0.65625 0  0.40625 0.65625 0  0.4375 0.65625 0  0.46875 0.65625 0  0.5 0.65625 0  0.53125 0.65625 0  0.5625 0.65625 0  0.59375 0.65625 0  0.625 0.65625 0  0.65625 0.65625 0  0.6875 0.65625 0  0.71875 0.65625 0  0.75 0.65625 0  0.78125 0.65625 0  0.8125 0.65625 0  0.84375 0.65625 0  0.875 0.65625 0  0.90625 0.65625 0  0.9375 0.65625 0  0.96875 0.65625 0  1 0.65625 0  0.03125 0.703125 0  0 0.703125 0  0.0625 0.703125 0  0.09375 0.703125 0  0.125 0.703125 0  0.15625 0.703125 0  0.1875 0.703125 0  0.21875 0.703125 0  0.25 0.703125 0  0.28125 0.703125 0  0.3125 0.703125 0  0.34375 0.703125 0  0.375 0.703125 0  0.40625 0.703125 0  0.4375 0.703125 0  0.46875 0.703125 0  0.5 0.703125 0  0.53125 0.703125 0  0.5625 0.703125 0  0.59375 0.703125 0  0.625 0.703125 0  0.65625 0.703125 0  0.6875 0.703125 0  0.71875 0.703125 0  0.75 0.703125 0  0.78125 0.703125 0  0.8125 0.703125 0  0.84375 0.703125 0  0.875 0.703125 0  0.90625 0.703125 0  0.9375 0.703125 0  0.96875 0.703125 0  1 0.703125 0  0.03125 0.75 0  0 0.75 0  0.0625 0.75 0  0.09375 0.75 0  0.125 0.75 0  0.15625 0.75 0  0.1875 0.75 0  0.21875 0.75 0  0.25 0.75 0  0.28125 0.75 0  0.3125 0.75 0  0.34375 0.75 0  0.375 0.75 0  0.40625 0.75 0  0.4375 0.75 0  0.46875 0.75 0  0.5 0.75 0  0.53125 0.75 0  0.5625 0.75 0  0.59375 0.75 0  0.625 0.75 0  0.65625 0.75 0  0.6875 0.75 0  0.71875 0.75 0  0.75 0.75 0  0.78125 0.75 0  0.8125 0.75 0  0.84375 0.75 0  0.875 0.75 0  0.90625 0.75 0  0.9375 0.75 0  0.96875 0.75 0  1 0.75 0  0.03125 0.796875 0  0 0.796875 0  0.0625 0.796875 0  0.09375 0.796875 0  0.125 0.796875 0  0.15625 0.796875 0  0.1875 0.796875 0  0.21875 0.796875 0  0.25 0.796875 0  0.28125 0.796875 0  0.3125 0.796875 0  0.34375 0.796875 0  0.375 0.796875 0  0.40625 0.796875 0  0.4375 0.796875 0  0.46875 0.796875 0  0.5 0.796875 0  0.53125 0.796875 0  0.5625 0.796875 0  0.59375 0.796875 0  0.625 0.796875 0  0.65625 0.796875 0  0.6875 0.796875 0  0.71875 0.796875 0  0.75 0.796875 0  0.78125 0.796875 0  0.8125 0.796875 0  0.84375 0.796875 0  0.875 0.796875 0  0.90625 0.796875 0  0.9375 0.796875 0  0.96875 0.796875 0  1 0.796875 0  0.03125 0.84375 0  0 0.84375 0  0.0625 0.84375 0  0.09375 0.84375 0  0.125 0.84375 0  0.15625 0.84375 0  0.1875 0.84375 0  0.21875 0.84375 0  0.25 0.84375 0  0.28125 0.84375 0  0.3125 0.84375 0  0.34375 0.84375 0  0.375 0.84375 0  0.40625 0.84375 0  0.4375 0.84375 0  0.46875 0.84375 0  0.5 0.84375 0  0.53125 0.84375 0  0.5625 0.84375 0  0.59375 0.84375 0  0.625 0.84375 0  0.65625 0.84375 0  0.6875 0.84375 0  0.71875 0.84375 0  0.75 0.84375 0  0.78125 0.84375 0  0.8125 0.84375 0  0.84375 0.84375 0  0.875 0.84375 0  0.90625 0.84375 0  0.9375 0.84375 0  0.96875 0.84375 0  1 0.84375 0  0.03125 0.890625 0  0 0.890625 0  0.0625 0.890625 0  0.09375 0.890625 0  0.125 0.890625 0  0.15625 0.890625 0  0.1875 0.890625 0  0.21875 0.890625 0  0.25 0.890625 0  0.28125 0.890625 0  0.3125 0.890625 0  0.34375 0.890625 0  0.375 0.890625 0  0.40625 0.890625 0  0.4375 0.890625 0  0.46875 0.890625 0  0.5 0.890625 0  0.53125 0.890625 0  0.5625 0.890625 0  0.59375 0.890625 0  0.625 0.890625 0  0.65625 0.890625 0  0.6875 0.890625 0  0.71875 0.890625 0  0.75 0.890625 0  0.78125 0.890625 0  0.8125 0.890625 0  0.84375 0.890625 0  0.875 0.890625 0  0.90625 0.890625 0  0.9375 0.890625 0  0.96875 0.890625 0  1 0.890625 0  0.03125 0.9375 0  0 0.9375 0  0.0625 0.9375 0  0.09375 0.9375 0  0.125 0.9375 0  0.15625 0.9375 0  0.1875 0.9375 0  0.21875 0.9375 0  0.25 0.9375 0  0.28125 0.9375 0  0.3125 0.9375 0  0.34375 0.9375 0  0.375 0.9375 0  0.40625 0.9375 0  0.4375 0.9375 0  0.46875 0.9375 0  0.5 0.9375 0  0.53125 0.9375 0  0.5625 0.9375 0  0.59375 0.9375 0  0.625 0.9375 0  0.65625 0.9375 0  0.6875 0.9375 0  0.71875 0.9375 0  0.75 0.9375 0  0.78125 0.9375 0  0.8125 0.9375 0  0.84375 0.9375 0  0.875 0.9375 0  0.90625 0.9375 0  0.9375 0.9375 0  0.96875 0.9375 0  1 0.9375 0  0.03125 0.984375 0  0 0.984375 0  0.0625 0.984375 0  0.09375 0.984375 0  0.125 0.984375 0  0.15625 0.984375 0  0.1875 0.984375 0  0.21875 0.984375 0  0.25 0.984375 0  0.28125 0.984375 0  0.3125 0.984375 0  0.34375 0.984375 0  0.375 0.984375 0  0.40625 0.984375 0  0.4375 0.984375 0  0.46875 0.984375 0  0.5 0.984375 0  0.53125 0.984375 0  0.5625 0.984375 0  0.59375 0.984375 0  0.625 0.984375 0  0.65625 0.984375 0  0.6875 0.984375 0  0.71875 0.984375 0  0.75 0.984375 0  0.78125 0.984375 0  0.8125 0.984375 0  0.84375 0.984375 0  0.875 0.984375 0  0.90625 0.984375 0  0.9375 0.984375 0  0.96875 0.984375 0  1 0.984375 0  0.03125 1.03125 0  0 1.03125 0  0.0625 1.03125 0  0.09375 1.03125 0  0.125 1.03125 0  0.15625 1.03125 0  0.1875 1.03125 0  0.21875 1.03125 0  0.25 1.03125 0  0.28125 1.03125 0  0.3125 1.03125 0  0.34375 1.03125 0  0.375 1.03125 0  0.40625 1.03125 0  0.4375 1.03125 0  0.46875 1.03125 0  0.5 1.03125 0  0.53125 1.03125 0  0.5625 1.03125 0  0.59375 1.03125 0  0.625 1.03125 0  0.65625 1.03125 0  0.6875 1.03125 0  0.71875 1.03125 0  0.75 1.03125 0  0.78125 1.03125 0  0.8125 1.03125 0  0.84375 1.03125 0  0.875 1.03125 0  0.90625 1.03125 0  0.9375 1.03125 0  0.96875 1.03125 0  1 1.03125 0  0.03125 1.078125 0  0 1.078125 0  0.0625 1.078125 0  0.09375 1.078125 0  0.125 1.078125 0  0.15625 1.078125 0  0.1875 1.078125 0  0.21875 1.078125 0  0.25 1.078125 0  0.28125 1.078125 0  0.3125 1.078125 0  0.34375 1.078125 0  0.375 1.078125 0  0.40625 1.078125 0  0.4375 1.078125 0  0.46875 1.078125 0  0.5 1.078125 0  0.53125 1.078125 0  0.5625 1.078125 0  0.59375 1.078125 0  0.625 1.078125 0  0.65625 1.078125 0  0.6875 1.078125 0  0.71875 1.078125 0  0.75 1.078125 0  0.78125 1.078125 0  0.8125 1.078125 0  0.84375 1.078125 0  0.875 1.078125 0  0.90625 1.078125 0  0.9375 1.078125 0  0.96875 1.078125 0  1 1.078125 0  0.03125 1.125 0  0 1.125 0  0.0625 1.125 0  0.09375 1.125 0  0.125 1.125 0  0.15625 1.125 0  0.1875 1.125 0  0.21875 1.125 0  0.25 1.125 0  0.28125 1.125 0  0.3125 1.125 0  0.34375 1.125 0  0.375 1.125 0  0.40625 1.125 0  0.4375 1.125 0  0.46875 1.125 0  0.5 1.125 0  0.53125 1.125 0  0.5625 1.125 0  0.59375 1.125 0  0.625 1.125 0  0.65625 1.125 0  0.6875 1.125 0  0.71875 1.125 0  0.75 1.125 0  0.78125 1.125 0  0.8125 1.125 0  0.84375 1.125 0  0.875 1.125 0  0.90625 1.125 0  0.9375 1.125 0  0.96875 1.125 0  1 1.125 0  0.03125 1.171875 0  0 1.171875 0  0.0625 1.171875 0  0.09375 1.171875 0  0.125 1.171875 0  0.15625 1.171875 0  0.1875 1.171875 0  0.21875 1.171875 0  0.25 1.171875 0  0.28125 1.171875 0  0.3125 1.171875 0  0.34375 1.171875 0  0.375 1.171875 0  0.40625 1.171875 0  0.4375 1.171875 0  0.46875 1.171875 0  0.5 1.171875 0  0.53125 1.171875 0  0.5625 1.171875 0  0.59375 1.171875 0  0.625 1.171875 0  0.65625 1.171875 0  0.6875 1.171875 0  0.71875 1.171875 0  0.75 1.171875 0  0.78125 1.171875 0  0.8125 1.171875 0  0.84375 1.171875 0  0.875 1.171875 0  0.90625 1.171875 0  0.9375 1.171875 0  0.96875 1.171875 0  1 1.171875 0  0.03125 1.21875 0  0 1.21875 0  0.0625 1.21875 0  0.09375 1.21875 0  0.125 1.21875 0  0.15625 1.21875 0  0.1875 1.21875 0  0.21875 1.21875 0  0.25 1.21875 0  0.28125 1.21875 0  0.3125 1.21875 0  0.34375 1.21875 0  0.375 1.21875 0  0.40625 1.21875 0  0.4375 1.21875 0  0.46875 1.21875 0  0.5 1.21875 0  0.53125 1.21875 0  0.5
[...]
<PointData  Vectors="u"> 
<DataArray  type="Float64"  Name="u"  NumberOfComponents="3" format="ascii">1.4116441219074511e-02 7.1453053590230333e-04 0.0000000000000000e+00  1.6277643032317476e-02 3.9893723656494167e-03 0.0000000000000000e+00  1.7909196409549299e-02 4.2714651789115040e-03 0.0000000000000000e+00  1.5337508805736264e-02 9.3240444368704626e-04 0.0000000000000000e+00  1.5726527422603626e-02 7.2649704779704991e-03 0.0000000000000000e+00  1.7523801556227781e-02 7.8604568641721852e-03 0.0000000000000000e+00  1.4635547377019945e-02 1.0194525509885415e-02 0.0000000000000000e+00  1.6219005846219218e-02 1.1032425302877472e-02 0.0000000000000000e+00  1.3206410652742346e-02 1.2658605063054371e-02 0.0000000000000000e+00  1.4558956012177510e-02 1.3675905776538081e-02 0.0000000000000000e+00  1.1547111578622237e-02 1.4591508272921607e-02 0.0000000000000000e+00  1.2696925917039595e-02 1.5729341815965813e-02 0.0000000000000000e+00  9.7473389008066510e-03 1.5948958950024041e-02 0.0000000000000000e+00  1.0722017228601411e-02 1.7154381513579106e-02 0.0000000000000000e+00  7.8853825943764715e-03 1.6706914035207132e-02 0.0000000000000000e+00  8.7092268945022835e-03 1.7933060652808721e-02 0.0000000000000000e+00  6.0302072244088484e-03 1.6861277182271501e-02 0.0000000000000000e+00  6.7245283459309102e-03 1.8066866626071439e-02 0.0000000000000000e+00  4.2424214576749731e-03 1.6426682129483994e-02 0.0000000000000000e+00  4.8257926431953483e-03 1.7575609442464630e-02 0.0000000000000000e+00  2.5748775074638719e-03 1.5434867447023532e-02 0.0000000000000000e+00  3.0636021949440218e-03 1.6495786662947327e-02 0.0000000000000000e+00  1.0731770749678991e-03 1.3932726416746284e-02 0.0000000000000000e+00  1.4814551944822062e-03 1.4878776671909948e-02 0.0000000000000000e+00  -2.2396193025667869e-04 1.1980329223277101e-02 0.0000000000000000e+00  1.1632384237546480e-04 1.2788835269043066e-02 0.0000000000000000e+00  -1.2843192748373230e-03 9.6488443905922688e-03 0.0000000000000000e+00  -1.0011867486570515e-03 1.0301147634640146e-02 0.0000000000000000e+00  -2.0819501143027387e-03 7.0185486128034810e-03 0.0000000000000000e+00  -1.8465039247860179e-03 7.4998202391972531e-03 0.0000000000000000e+00  -2.5969802555355793e-03 4.1768025962598378e-03 0.0000000000000000e+00  -2.4010498104370319e-03 4.4759836791570008e-03 0.0000000000000000e+00  -2.8154846710159191e-03 1.2161113979154139e-03 0.0000000000000000e+00  -2.6520274555816492e-03 1.3258555319217431e-03 0.0000000000000000e+00  -2.7294239997592475e-03 -1.7678494843124150e-03 0.0000000000000000e+00  -2.5925242479798299e-03 -1.8511129536757170e-03 0.0000000000000000e+00  -2.3367042704050844e-03 -4.6781812914740203e-03 0.0000000000000000e+00  -2.2215433003419716e-03 -4.9541618882383556e-03 0.0000000000000000e+00  -1.6412685618304693e-03 -7.4187901704061655e-03 0.0000000000000000e+00  -1.5442411114198926e-03 -7.8831439932956337e-03 0.0000000000000000e+00  -6.5326956902508697e-04 -9.8964576053659267e-03 0.0000000000000000e+00  -5.7211418279801997e-04 -1.0540570988826868e-02 0.0000000000000000e+00  6.1069881165256462e-04 -1.2023046108085966e-02 0.0000000000000000e+00  6.7657013340886852e-04 -1.2833731261994503e-02 0.0000000000000000e+00  2.1273006216130197e-03 -1.3717791363280593e-02 0.0000000000000000e+00  2.1764259714998394e-03 -1.4676977178963858e-02 0.0000000000000000e+00  3.8662078941972839e-03 -1.4909755610542998e-02 0.0000000000000000e+00  3.8944572958602213e-03 -1.5994114739403091e-02 0.0000000000000000e+00  5.7898076603863334e-03 -1.5540356287408892e-02 0.0000000000000000e+00  5.7896895659093808e-03 -1.6720953091580257e-02 0.0000000000000000e+00  7.8529762991773611e-03 -1.5566003553299124e-02 0.0000000000000000e+00  7.8126596529909369e-03 -1.6807899848494644e-02 0.0000000000000000e+00  1.0002695588990048e-02 -1.4960733206397358e-02 0.0000000000000000e+00  9.9050272707270938e-03 -1.6222604239532933e-02 0.0000000000000000e+00  1.2176820617763075e-02 -1.3718848599324976e-02 0.0000000000000000e+00  1.1998407417532133e-02 -1.4952499388367513e-02 0.0000000000000000e+00  1.4298467227115719e-02 -1.1857629000882004e-02 0.0000000000000000e+00  1.4010374375026936e-02 -1.3007300496875471e-02 0.0000000000000000e+00  1.6249751942246336e-02 -9.4211417130492282e-03 0.0000000000000000e+00  1.5825446905759894e-02 -1.0422034605484697e-02 0.0000000000000000e+00  1.7752554600878195e-02 -6.4918404728480624e-03 0.0000000000000000e+00  1.7208711498426149e-02 -7.2656340476581725e-03 0.0000000000000000e+00  1.7927553391827940e-02 -3.2623886108628531e-03 0.0000000000000000e+00  1.7459871404764103e-02 -3.6937867585576101e-03 0.0000000000000000e+00  1.5189926796056193e-02 -3.0009054740022658e-04 0.0000000000000000e+00  1.4590405362846065e-02 -4.1159105994729891e-04 0.0000000000000000e+00  1.9809789815259837e-02 5.0661552998626964e-03 0.0000000000000000e+00  1.7169950854560405e-02 1.3983248551264155e-03 0.0000000000000000e+00  1.9303909942820746e-02 9.3118245084352260e-03 0.0000000000000000e+00  1.7925776658773509e-02 1.3011032850611632e-02 0.0000000000000000e+00  1.6157674529978044e-02 1.6036878128959108e-02 0.0000000000000000e+00  1.4169034082810682e-02 1.8340847925237262e-02 0.0000000000000000e+00  1.2062229103275930e-02 1.9898540861171137e-02 0.0000000000000000e+00  9.9185454365711394e-03 2.0705268355852392e-02 0.0000000000000000e+00  7.8081231690866658e-03 2.0775130730183861e-02 0.0000000000000000e+00  5.7924718521391097e-03 2.0139715458745776e-02 0.0000000000000000e+00  3.9246393427540974e-03 1.8846584476355416e-02 0.0000000000000000e+00  2.2502036833724481e-03 1.6957414537269129e-02 0.0000000000000000e+00  8.0733166390469034e-04 1.4546189594478820e-02 0.0000000000000000e+00  -3.7232836214078638e-04 1.1697225295547365e-02 0.0000000000000000e+00  -1.2637157155359247e-03 8.5034024001456199e-03 0.0000000000000000e+00  -1.8477022670790383e-03 5.0642856916729463e-03 0.0000000000000000e+00  -2.1112054326271712e-03 1.4844625642788736e-03 0.0000000000000000e+00  -2.0468931092019801e-03 -2.1282468003010796e-03 0.0000000000000000e+00  -1.6535163017479075e-03 -5.6644343890006991e-03 0.0000000000000000e+00  -9.3589030171089519e-04 -9.0149345470774689e-03 0.0000000000000000e+00  9.4554037073750133e-05 -1.2072622769028665e-02 0.0000000000000000e+00  1.4194837108355610e-03 -1.4734451063998143e-02 0.0000000000000000e+00  3.0128771326000973e-03 -1.6903548400532750e-02 0.0000000000000000e+00  4.8406392246592746e-03 -1.8491573121259604e-02 0.0000000000000000e+00  6.8597275604003185e-03 -1.9421143512693216e-02 0.0000000000000000e+00  9.0177427617606689e-03 -1.9628441857499311e-02 0.0000000000000000e+00  1.1252054409700752e-02 -1.9065771893709824e-02 0.0000000000000000e+00  1.3488725190687171e-02 -1.7704074926424538e-02 0.0000000000000000e+00  1.5637748643773243e-02 -1.5535267182589494e-02 0.0000000000000000e+00  1.7572029335661307e-02 -1.2575192134835950e-02 0.0000000000000000e+00  1.9028143194506891e-02 -8.8734197630241460e-03 0.0000000000000000e+00  1.9188180023904065e-02 -4.5895705421478824e-03 0.0000000000000000e+00  1.5681228939276315e-02 -8.5876858907576016e-04 0.0000000000000000e+00  2.2684950543204709e-02 6.0280992389633858e-03 0.0000000000000000e+00  1.9756233329670223e-02 1.8639432043427537e-03 0.0000000000000000e+00  2.2100893700620048e-02 1.1038726496770339e-02 0.0000000000000000e+00  2.0603408371124638e-02 1.5355379880998499e-02 0.0000000000000000e+00  1.8691632626784731e-02 1.8829784708035292e-02 0.0000000000000000e+00  1.6542578416876914e-02 2.1425877760242715e-02 0.0000000000000000e+00  1.4266211332029620e-02 2.3135402188347042e-02 0.0000000000000000e+00  1.1951729434606092e-02 2.3969913710588545e-02 0.0000000000000000e+00  9.6763894098157548e-03 2.3959008959380929e-02 0.0000000000000000e+00  7.5065265169452378e-03 2.3148908487866108e-02 0.0000000000000000e+00  5.4994850338727468e-03 2.1600752303920261e-02 0.0000000000000000e+00  3.7032412981191118e-03 1.9388857202502656e-02 0.0000000000000000e+00  2.1581967160384228e-03 1.6598797750561074e-02 0.0000000000000000e+00  8.9685183712084698e-04 1.3325710802344319e-02 0.0000000000000000e+00  -5.4660984469373814e-05 9.6724800631082502e-03 0.0000000000000000e+00  -6.7695638483074056e-04 5.7482671035678770e-03 0.0000000000000000e+00  -9.5623203549954016e-04 1.6668679287883607e-03 0.0000000000000000e+00  -8.8486408158901003e-04 -2.4545922526316350e-03 0.0000000000000000e+00  -4.6082006277155696e-04 -6.4972280932746171e-03 0.0000000000000000e+00  3.1151963948439958e-04 -1.0341746132153558e-02 0.0000000000000000e+00  1.4214320547995165e-03 -1.3870143281194163e-02 0.0000000000000000e+00  2.8506745810105544e-03 -1.6967349553964797e-02 0.0000000000000000e+00  4.5731613292567296e-03 -1.9523249909305183e-02 0.0000000000000000e+00  6.5536049629443000e-03 -2.1434780590068130e-02 0.0000000000000000e+00  8.7470396289994288e-03 -2.2608354069193291e-02 0.0000000000000000e+00  1.1097441511816688e-02 -2.2962360041577874e-02 0.0000000000000000e+00  1.3537275874414707e-02 -2.2429815714990909e-02 0.0000000000000000e+00  1.5985467552894518e-02 -2.0960932458487781e-02 0.0000000000000000e+00  1.8342374146156963e-02 -1.8525719145887624e-02 0.0000000000000000e+00  2.0464029834867770e-02 -1.5117607835725046e-02 0.0000000000000000e+00  2.2041958286623656e-02 -1.0767078654331757e-02 0.0000000000000000e+00  2.2093515487768268e-02 -5.6509573135741656e-03 0.0000000000000000e+00  1.7841456257082375e-02 -1.3598289860680271e-03 0.0000000000000000e+00  2.6554469000976414e-02 7.0926560681357550e-03 0.0000000000000000e+00  2.3140695103762321e-02 2.3477440015763672e-03 0.0000000000000000e+00  2.5920266978412092e-02 1.2945492280472775e-02 0.0000000000000000e+00  2.4291435324512983e-02 1.7936789201238579e-02 0.0000000000000000e+00  2.2217059119120763e-02 2.1897826121661548e-02 0.0000000000000000e+00  1.9887300853707608e-02 2.4806893996795334e-02 0.0000000000000000e+00  1.7422415000088724e-02 2.6674033742645046e-02 0.0000000000000000e+00  1.4920951350234170e-02 2.7529493397551039e-02 0.0000000000000000e+00  1.2466674391169757e-02 2.7420959566147905e-02 0.0000000000000000e+00  1.0132058166382941e-02 2.6411718110233857e-02 0.0000000000000000e+00  7.9775972314252153e-03 2.4578710794686241e-02 0.0000000000000000e+00  6.0544650325778625e-03 2.2010643737493570e-02 0.0000000000000000e+00  4.4037221100789959e-03 1.8806144331146184e-02 0.0000000000000000e+00  3.0592106213580671e-03 1.5072030930980616e-02 0.0000000000000000e+00  2.0465723998947028e-03 1.0921866054686761e-02 0.0000000000000000e+00  1.3858687425084373e-03 6.4745174280610406e-03 0.0000000000000000e+00  1.0904409318152996e-03 1.8531239055345897e-03 0.0000000000000000e+00  1.1688347609430261e-03 -2.8161374783069407e-03 0.0000000000000000e+00  1.6232944151414502e-03 -7.4048858390102631e-03 0.0000000000000000e+00  2.4508680456284244e-03 -1.1783782694609914e-02 0.0000000000000000e+00  3.6415649046848786e-03 -1.5823533593523679e-02 0.0000000000000000e+00  5.1785678270826500e-03 -1.9396418417927344e-02 0.0000000000000000e+00  7.0360717929317295e-03 -2.2377804874955731e-02 0.0000000000000000e+00  9.1789983107642952e-03 -2.4648181553128458e-02 0.0000000000000000e+00  1.1560769437680017e-02 -2.6095357099244609e-02 0.0000000000000000e+00  1.4122803256730323e-02 -2.6617045863274017e-02 0.0000000000000000e+00  1.6792556041578609e-02 -2.6123624958831124e-02 0.0000000000000000e+00  1.9482147782436843e-02 -2.4541060759036233e-02 0.0000000000000000e+00  2.2081259371384859e-02 -2.1814108230891468e-02 0.0000000000000000e+00  2.4426762697684474e-02 -1.7911251332338399e-02 0.0000000000000000e+00  2.6155273782323237e-02 -1.2843136273718204e-02 0.0000000000000000e+00  2.6081706974520648e-02 -6.8066354769439341e-03 0.0000000000000000e+00  2.0887029180368267e-02 -1.8581566332166787e-03 0.0000000000000000e+00  3.1464643561650976e-02 8.2557310542143957e-03 0.0000000000000000e+00  2.7365488688307040e-02 2.8712424799920526e-03 0.0000000000000000e+00  3.0808054677380604e-02 1.5022629579402124e-02 0.0000000000000000e+00  2.9043985789236816e-02 2.0740632887754126e-02 0.0000000000000000e+00  2.6801089332761929e-02 2.5220786503267530e-02 0.0000000000000000e+00  2.4288881730259854e-02 2.8457614720848817e-02 0.0000000000000000e+00  2.1639608917740607e-02 3.0482319705642687e-02 0.0000000000000000e+00  1.8959870905377707e-02 3.1346852811791365e-02 0.0000000000000000e+00  1.6340726908618347e-02 3.1120109235879545e-02 0.0000000000000000e+00  1.3858204007715560e-02 2.9885245486473096e-02 0.0000000000000000e+00  1.1576337148536453e-02 2.7737496891890267e-02 0.0000000000000000e+00  9.5462557306943731e-03 2.4781888531848383e-02 0.0000000000000000e+00  7.8100574378654319e-03 2.1131467119497292e-02 0.0000000000000000e+00  6.3995901603394016e-03 1.6905575657178148e-02 0.0000000000000000e+00  5.3406323395309872e-03 1.2228657178493510e-02 0.0000000000000000e+00  4.6510366997605090e-03 7.2292278680489699e-03 0.0000000000000000e+00  4.3447438182574001e-03 2.0391345699696051e-03 0.0000000000000000e+00  4.4292279251616226e-03 -3.2069160326900913e-03 0.0000000000000000e+00  4.9085442024938229e-03 -8.3719300685483541e-03 0.0000000000000000e+00  5.7803279893980280e-03 -1.3316927337337034e-02 0.0000000000000000e+00  7.0375164895112897e-03 -1.7901717355758111e-02 0.0000000000000000e+00  8.6649887959029028e-03 -2.1985567954761486e-02 0.0000000000000000e+00  1.0639886372741519e-02 -2.5428548035106163e-02 0.0000000000000000e+00  1.2928325742959814e-02 -2.8093042427425687e-02 0.0000000000000000e+00  1.5484844390788724e-02 -2.9845919841549530e-02 0.0000000000000000e+00  1.8249465270799452e-02 -3.0561094564546018e-02 0.0000000000000000e+00  2.1146851255110805e-02 -3.0122573739856134e-02 0.0000000000000000e+00  2.4082946868482811e-02 -2.8427945399873086e-02 0.0000000000000000e+00  2.6937480752195677e-02 -2.5392475744872998e-02 0.0000000000000000e+00  2.9525860716983574e-02 -2.0955821712499257e-02 0.0000000000000000e+00  3.1419690745537486e-02 -1.5105878290733177e-02 0.0000000000000000e+00  3.1186004533382716e-02 -8.0601443376996998e-03 0.0000000000000000e+00  2.4808112674705288e-02 -2.3729755540304607e-03 0.0000000000000000e+00  3.7508581663284399e-02 9.5176832308567823e-03 0.0000000000000000e+00  3.2504295983891422e-02 3.4512697771666460e-03 0.0000000000000000e+00  3.6862367350769649e-02 1.7266432019842581e-02 0.0000000000000000e+00  3.4968605912474603e-02 2.3757659386540016e-02 0.0000000000000000e+00  3.2565078420053080e-02 2.8781590612696001e-02 0.0000000000000000e+00  2.9887571645506379e-02 3.2352209198490904e-02 0.0000000000000000e+00  2.7080106473812201e-02 3.4525647900148018e-02 0.0000000000000000e+00  2.4257541487738423e-02 3.5379666816770829e-02 0.0000000000000000e+00  2.1515148053813552e-02 3.5008154007188506e-02 0.0000000000000000e+00  1.8931844166840444e-02 3.3517702022345053e-02 0.0000000000000000e+00  1.6570732510879659e-02 3.1024573908297513e-02 0.0000000000000000e+00  1.4482327776605589e-02 2.7652334252043054e-02 0.0000000000000000e+00  1.2704633661647898e-02 2.3529658291274572e-02 0.0000000000000000e+00  1.1267737945112254e-02 1.8789043176781588e-02 0.0000000000000000e+00  1.0192547898930152e-02 1.3565592421550077e-02 0.0000000000000000e+00  9.4961196547172170e-03 7.9967472334295589e-03 0.0000000000000000e+00  9.1888465258484989e-03 2.2219161359214351e-03 0.0000000000000000e+00  9.2796382432012974e-03 -3.6171682358549554e-03 0.0000000000000000e+00  9.7716584369360437e-03 -9.3762772621681506e-03 0.0000000000000000e+00  1.0666436478043785e-02 -1.4908286341041674e-02 0.0000000000000000e+00  1.1958980543825635e-02 -2.0062954837186012e-02 0.0000000000000000e+00  1.3639742885101391e-02 -2.4687097286770366e-02 0.0000000000000000e+00  1.5689762014935098e-02 -2.8625009885018135e-02 0.0000000000000000e+00  1.8080560381525747e-02 -3.1719740076336926e-02 0.0000000000000000e+00  2.0769920718016897e-02 -3.3814824004897444e-02 0.0000000000000000e+00  2.3700459001757483e-02 -3.4756973690864702e-02 0.0000000000000000e+00  2.6796346385207392e-02 -3.4399425772358709e-02 0.0000000000000000e+00  2.9960229900777537e-02 -3.2606167780046845e-02 0.0000000000000000e+00  3.3062767314414661e-02 -2.9257255995094281e-02 0.0000000000000000e+00  3.5896628829045082e-02 -2.4257622677293318e-02 0.0000000000000000e+00  3.7956685542999066e-02 -1.7567145435674607e-02 0.0000000000000000e+00  3.7509703326636779e-02 -9.4232716856290730e-03 0.0000000000000000e+00  2.9663573407908334e-02 -2.9289515780740244e-03 0.0000000000000000e+00  4.4816313138242615e-02 1.0874306489763827e-02 0.0000000000000000e+00  3.8657608747829766e-02 4.1014120717237220e-03 0.0000000000000000e+00  4.4222332136619254e-02 1.9664283618506914e-02 0.0000000000000000e+00  4.2214839489162312e-02 2.6963448502255096e-02 0.0000000000000000e+00  3.9674153047061150e-02 3.2541443865391317e-02 0.0000000000000000e+00  3.6868417083702823e-02 3.6436593057476471e-02 0.0000000000000000e+00  3.3954158871008645e-02 3.8735480174565962e-02 0.0000000000000000e+00  3.1052394841623650e-02 3.9547153109450429e-02 0.0000000000000000e+00  2.8260449017472367e-02 3.8995554424851080e-02 0.0000000000000000e+00  2.5655628848034816e-02 3.7214947900829930e-02 0.0000000000000000e+00  2.3297359264053165e-02 3.4346008762260585e-02 0.0000000000000000e+00  2.1229651239138444e-02 3.0532953189358784e-02 0.0000000000000000e+00  1.9484553964931685e-02 2.5921337723578467e-02 0.0000000000000000e+00  1.8083937307102935e-02 2.0656692608855391e-02 0.0000000000000000e+00  1.7043963631351668e-02 1.4884108846359132e-02 0.0000000000000000e+00  1.6374698410570362e-02 8.7481008192281176e-03 0.0000000000000000e+00  1.6085473023023201e-02 2.3936419470811160e-03 0.0000000000000000e+00  1.6181664012785476e-02 -4.0332012928377611e-03 0.0000000000000000e+00  1.6669890400269553e-02 -1.0383479818981767e-02 0.0000000000000000e+00  1.7552699045725918e-02 -1.6504427651684597e-02 0.0000000000000000e+00  1.8832423677223303e-02 -2.2237872560978707e-02 0.0000000000000000e+00  2.0504944649557572e-02 -2.7419489204355909e-02 0.0000000000000000e+00  2.2560810638586691e-02 -3.1878399810246566e-02 0.0000000000000000e+00  2.4979476631257307e-02 -3.5437464615337561e-02 0.0000000000000000e+00  2.7727688860506652e-02 -3.7914847986206784e-02 0.0000000000000000e+00  3.0754718833680098e-02 -3.9126330074886174e-02 0.0000000000000000e+00  3.3989334850810661e-02 -3.8889232742310695e-02 0.0000000000000000e+00  3.7334569667819305e-02 -3.7027333534231335e-02 0.0000000000000000e+00  4.0654740729288867e-02 -3.3377787251120027e-02 0.0000000000000000e+00  4.3718804083920274e-02 -2.7802420344765870e-02 0.0000000000000000e+00  4.5932219758855954e-02 -2.0225024196641607e-02 0.0000000000000000e+00  4.5200820504141745e-02 -1.0900642806133606e-02 0.0000000000000000e+00  3.5551851972995291e-02 -3.5458893826002952e-03 0.0000000000000000e+00  5.3548356365595726e-02 1.2315005125928409e-02 0.0000000000000000e+00  4.5947471670351098e-02 4.8334435255342938e-03 0.0000000000000000e+00  5.3059549273026044e-02 2.2190221701611692e-02 0.0000000000000000e+00  5.0966420759435284e-02 3.0312345875115505e-02 0.0000000000000000e+00  4.8329685305254652e-02 3.6432079637363578e-02 0.0000000000000000e+00  4.5456580381973616e-02 4.0619291433508994e-02 0.0000000000000000e+00  4.2516095112243892e-02 4.2999015849326139e-02 0.0000000000000000e+00  3.9632700452337744e-02 4.3719007553485574e-02 0.0000000000000000e+00  3.6901517664350438e-02 4.2939998978977198e-02 0.0000000000000000e+00  3.4393236949930260e-02 4.0829135970591783e-02 0.0000000000000000e+00  3.2157520150197925e-02 3.7555425310210645e-02 0.0000000000000000e+00  3.0226811726897958e-02 3.3285906515558274e-02 0.0000000000000000e+00  2.8620523591694834e-02 2.8183721815757408e-02 0.0000000000000000e+00  2.7349048081785062e-02 2.2406811075073210e-02 0.0000000000000000e+00  2.6417169416652706e-02 1.6108186957593494e-02 0.0000000000000000e+00  2.5827630337412529e-02 9.4368498143232483e-03 0.0000000000000000e+00  2.5582646590084634e-02 2.5394082286691127e-03 0.0000000000000000e+00  2.5686994156052724e-02 -4.4373565182049841e-03 0.0000000000000000e+00  