<?xml version="1.0"?>
<VTKFile type="UnstructuredGrid"  version="0.1"  >
<UnstructuredGrid>
<Piece  NumberOfPoints="759" NumberOfCells="1408">
<Points>
<DataArray  type="Float64"  NumberOfComponents="3"  format="ascii">0 0.46875 0  0.03125 0.46875 0  0.03125 0.515625 0  0 0.515625 0  0.0625 0.46875 0  0.0625 0.515625 0  0.09375 0.46875 0  0.09375 0.515625 0  0.125 0.46875 0  0.125 0.515625 0  0.15625 0.46875 0  0.15625 0.515625 0  0.1875 0.46875 0  0.1875 0.515625 0  0.21875 0.46875 0  0.21875 0.515625 0  0.25 0.46875 0  0.25 0.515625 0  0.28125 0.46875 0  0.28125 0.515625 0  0.3125 0.46875 0  0.3125 0.515625 0  0.34375 0.46875 0  0.34375 0.515625 0  0.375 0.46875 0  0.375 0.515625 0  0.40625 0.46875 0  0.40625 0.515625 0  0.4375 0.46875 0  0.4375 0.515625 0  0.46875 0.46875 0  0.46875 0.515625 0  0.5 0.46875 0  0.5 0.515625 0  0.53125 0.46875 0  0.53125 0.515625 0  0.5625 0.46875 0  0.5625 0.515625 0  0.59375 0.46875 0  0.59375 0.515625 0  0.625 0.46875 0  0.625 0.515625 0  0.65625 0.46875 0  0.65625 0.515625 0  0.6875 0.46875 0  0.6875 0.515625 0  0.71875 0.46875 0  0.71875 0.515625 0  0.75 0.46875 0  0.75 0.515625 0  0.78125 0.46875 0  0.78125 0.515625 0  0.8125 0.46875 0  0.8125 0.515625 0  0.84375 0.46875 0  0.84375 0.515625 0  0.875 0.46875 0  0.875 0.515625 0  0.90625 0.46875 0  0.90625 0.515625 0  0.9375 0.46875 0  0.9375 0.515625 0  0.96875 0.46875 0  0.96875 0.515625 0  1 0.46875 0  1 0.515625 0  0.03125 0.5625 0  0 0.5625 0  0.0625 0.5625 0  0.09375 0.5625 0  0.125 0.5625 0  0.15625 0.5625 0  0.1875 0.5625 0  0.21875 0.5625 0  0.25 0.5625 0  0.28125 0.5625 0  0.3125 0.5625 0  0.34375 0.5625 0  0.375 0.5625 0  0.40625 0.5625 0  0.4375 0.5625 0  0.46875 0.5625 0  0.5 0.5625 0  0.53125 0.5625 0  0.5625 0.5625 0  0.59375 0.5625 0  0.625 0.5625 0  0.65625 0.5625 0  0.6875 0.5625 0  0.71875 0.5625 0  0.75 0.5625 0  0.78125 0.5625 0  0.8125 0.5625 0  0.84375 0.5625 0  0.875 0.5625 0  0.90625 0.5625 0  0.9375 0.5625 0  0.96875 0.5625 0  1 0.5625 0  0.03125 0.609375 0  0 0.609375 0  0.0625 0.609375 0  0.09375 0.609375 0  0.125 0.609375 0  0.15625 0.609375 0  0.1875 0.609375 0  0.21875 0.609375 0  0.25 0.609375 0  0.28125 0.609375 0  0.3125 0.609375 0  0.34375 0.609375 0  0.375 0.609375 0  0.40625 0.609375 0  0.4375 0.609375 0  0.46875 0.609375 0  0.5 0.609375 0  0.53125 0.609375 0  0.5625 0.609375 0  0.59375 0.609375 0  0.625 0.609375 0  0.65625 0.609375 0  0.6875 0.609375 0  0.71875 0.609375 0  0.75 0.609375 0  0.78125 0.609375 0  0.8125 0.609375 0  0.84375 0.609375 0  0.875 0.609375 0  0.90625 0.609375 0  0.9375 0.609375 0  0.96875 0.609375 0  1 0.609375 0  0.03125 0.65625 0  0 0.65625 0  0.0625 0.65625 0  0.09375 0.65625 0  0.125 0.65625 0  0.15625 0.65625 0  0.1875 0.65625 0  0.21875 0.65625 0  0.25 0.65625 0  0.28125 0.65625 0  0.3125 0.65625 0  0.34375 0.65625 0  0.375 0.65625 0  0.40625 0.65625 0  0.4375 0.65625 0  0.46875 0.65625 0  0.5 0.65625 0  0.53125 0.65625 0  0.5625 0.65625 0  0.59375 0.65625 0  0.625 0.65625 0  0.65625 0.65625 0  0.6875 0.65625 0  0.71875 0.65625 0  0.75 0.65625 0  0.78125 0.65625 0  0.8125 0.65625 0  0.84375 0.65625 0  0.875 0.65625 0  0.90625 0.65625 0  0.9375 0.65625 0  0.96875 0.65625 0  1 0.65625 0  0.03125 0.703125 0  0 0.703125 0  0.0625 0.703125 0  0.09375 0.703125 0  0.125 0.703125 0  0.15625 0.703125 0  0.1875 0.703125 0  0.21875 0.703125 0  0.25 0.703125 0  0.28125 0.703125 0  0.3125 0.703125 0  0.34375 0.703125 0  0.375 0.703125 0  0.40625 0.703125 0  0.4375 0.703125 0  0.46875 0.703125 0  0.5 0.703125 0  0.53125 0.703125 0  0.5625 0.703125 0  0.59375 0.703125 0  0.625 0.703125 0  0.65625 0.703125 0  0.6875 0.703125 0  0.71875 0.703125 0  0.75 0.703125 0  0.78125 0.703125 0  0.8125 0.703125 0  0.84375 0.703125 0  0.875 0.703125 0  0.90625 0.703125 0  0.9375 0.703125 0  0.96875 0.703125 0  1 0.703125 0  0.03125 0.75 0  0 0.75 0  0.0625 0.75 0  0.09375 0.75 0  0.125 0.75 0  0.15625 0.75 0  0.1875 0.75 0  0.21875 0.75 0  0.25 0.75 0  0.28125 0.75 0  0.3125 0.75 0  0.34375 0.75 0  0.375 0.75 0  0.40625 0.75 0  0.4375 0.75 0  0.46875 0.75 0  0.5 0.75 0  0.53125 0.75 0  0.5625 0.75 0  0.59375 0.75 0  0.625 0.75 0  0.65625 0.75 0  0.6875 0.75 0  0.71875 0.75 0  0.75 0.75 0  0.78125 0.75 0  0.8125 0.75 0  0.84375 0.75 0  0.875 0.75 0  0.90625 0.75 0  0.9375 0.75 0  0.96875 0.75 0  1 0.75 0  0.03125 0.796875 0  0 0.796875 0  0.0625 0.796875 0  0.09375 0.796875 0  0.125 0.796875 0  0.15625 0.796875 0  0.1875 0.796875 0  0.21875 0.796875 0  0.25 0.796875 0  0.28125 0.796875 0  0.3125 0.796875 0  0.34375 0.796875 0  0.375 0.796875 0  0.40625 0.796875 0  0.4375 0.796875 0  0.46875 0.796875 0  0.5 0.796875 0  0.53125 0.796875 0  0.5625 0.796875 0  0.59375 0.796875 0  0.625 0.796875 0  0.65625 0.796875 0  0.6875 0.796875 0  0.71875 0.796875 0  0.75 0.796875 0  0.78125 0.796875 0  0.8125 0.796875 0  0.84375 0.796875 0  0.875 0.796875 0  0.90625 0.796875 0  0.9375 0.796875 0  0.96875 0.796875 0  1 0.796875 0  0.03125 0.84375 0  0 0.84375 0  0.0625 0.84375 0  0.09375 0.84375 0  0.125 0.84375 0  0.15625 0.84375 0  0.1875 0.84375 0  0.21875 0.84375 0  0.25 0.84375 0  0.28125 0.84375 0  0.3125 0.84375 0  0.34375 0.84375 0  0.375 0.84375 0  0.40625 0.84375 0  0.4375 0.84375 0  0.46875 0.84375 0  0.5 0.84375 0  0.53125 0.84375 0  0.5625 0.84375 0  0.59375 0.84375 0  0.625 0.84375 0  0.65625 0.84375 0  0.6875 0.84375 0  0.71875 0.84375 0  0.75 0.84375 0  0.78125 0.84375 0  0.8125 0.84375 0  0.84375 0.84375 0  0.875 0.84375 0  0.90625 0.84375 0  0.9375 0.84375 0  0.96875 0.84375 0  1 0.84375 0  0.03125 0.890625 0  0 0.890625 0  0.0625 0.890625 0  0.09375 0.890625 0  0.125 0.890625 0  0.15625 0.890625 0  0.1875 0.890625 0  0.21875 0.890625 0  0.25 0.890625 0  0.28125 0.890625 0  0.3125 0.890625 0  0.34375 0.890625 0  0.375 0.890625 0  0.40625 0.890625 0  0.4375 0.890625 0  0.46875 0.890625 0  0.5 0.890625 0  0.53125 0.890625 0  0.5625 0.890625 0  0.59375 0.890625 0  0.625 0.890625 0  0.65625 0.890625 0  0.6875 0.890625 0  0.71875 0.890625 0  0.75 0.890625 0  0.78125 0.890625 0  0.8125 0.890625 0  0.84375 0.890625 0  0.875 0.890625 0  0.90625 0.890625 0  0.9375 0.890625 0  0.96875 0.890625 0  1 0.890625 0  0.03125 0.9375 0  0 0.9375 0  0.0625 0.9375 0  0.09375 0.9375 0  0.125 0.9375 0  0.15625 0.9375 0  0.1875 0.9375 0  0.21875 0.9375 0  0.25 0.9375 0  0.28125 0.9375 0  0.3125 0.9375 0  0.34375 0.9375 0  0.375 0.9375 0  0.40625 0.9375 0  0.4375 0.9375 0  0.46875 0.9375 0  0.5 0.9375 0  0.53125 0.9375 0  0.5625 0.9375 0  0.59375 0.9375 0  0.625 0.9375 0  0.65625 0.9375 0  0.6875 0.9375 0  0.71875 0.9375 0  0.75 0.9375 0  0.78125 0.9375 0  0.8125 0.9375 0  0.84375 0.9375 0  0.875 0.9375 0  0.90625 0.9375 0  0.9375 0.9375 0  0.96875 0.9375 0  1 0.9375 0  0.03125 0.984375 0  0 0.984375 0  0.0625 0.984375 0  0.09375 0.984375 0  0.125 0.984375 0  0.15625 0.984375 0  0.1875 0.984375 0  0.21875 0.984375 0  0.25 0.984375 0  0.28125 0.984375 0  0.3125 0.984375 0  0.34375 0.984375 0  0.375 0.984375 0  0.40625 0.984375 0  0.4375 0.984375 0  0.46875 0.984375 0  0.5 0.984375 0  0.53125 0.984375 0  0.5625 0.984375 0  0.59375 0.984375 0  0.625 0.984375 0  0.65625 0.984375 0  0.6875 0.984375 0  0.71875 0.984375 0  0.75 0.984375 0  0.78125 0.984375 0  0.8125 0.984375 0  0.84375 0.984375 0  0.875 0.984375 0  0.90625 0.984375 0  0.9375 0.984375 0  0.96875 0.984375 0  1 0.984375 0  0.03125 1.03125 0  0 1.03125 0  0.0625 1.03125 0  0.09375 1.03125 0  0.125 1.03125 0  0.15625 1.03125 0  0.1875 1.03125 0  0.21875 1.03125 0  0.25 1.03125 0  0.28125 1.03125 0  0.3125 1.03125 0  0.34375 1.03125 0  0.375 1.03125 0  0.40625 1.03125 0  0.4375 1.03125 0  0.46875 1.03125 0  0.5 1.03125 0  0.53125 1.03125 0  0.5625 1.03125 0  0.59375 1.03125 0  0.625 1.03125 0  0.65625 1.03125 0  0.6875 1.03125 0  0.71875 1.03125 0  0.75 1.03125 0  0.78125 1.03125 0  0.8125 1.03125 0  0.84375 1.03125 0  0.875 1.03125 0  0.90625 1.03125 0  0.9375 1.03125 0  0.96875 1.03125 0  1 1.03125 0  0.03125 1.078125 0  0 1.078125 0  0.0625 1.078125 0  0.09375 1.078125 0  0.125 1.078125 0  0.15625 1.078125 0  0.1875 1.078125 0  0.21875 1.078125 0  0.25 1.078125 0  0.28125 1.078125 0  0.3125 1.078125 0  0.34375 1.078125 0  0.375 1.078125 0  0.40625 1.078125 0  0.4375 1.078125 0  0.46875 1.078125 0  0.5 1.078125 0  0.53125 1.078125 0  0.5625 1.078125 0  0.59375 1.078125 0  0.625 1.078125 0  0.65625 1.078125 0  0.6875 1.078125 0  0.71875 1.078125 0  0.75 1.078125 0  0.78125 1.078125 0  0.8125 1.078125 0  0.84375 1.078125 0  0.875 1.078125 0  0.90625 1.078125 0  0.9375 1.078125 0  0.96875 1.078125 0  1 1.078125 0  0.03125 1.125 0  0 1.125 0  0.0625 1.125 0  0.09375 1.125 0  0.125 1.125 0  0.15625 1.125 0  0.1875 1.125 0  0.21875 1.125 0  0.25 1.125 0  0.28125 1.125 0  0.3125 1.125 0  0.34375 1.125 0  0.375 1.125 0  0.40625 1.125 0  0.4375 1.125 0  0.46875 1.125 0  0.5 1.125 0  0.53125 1.125 0  0.5625 1.125 0  0.59375 1.125 0  0.625 1.125 0  0.65625 1.125 0  0.6875 1.125 0  0.71875 1.125 0  0.75 1.125 0  0.78125 1.125 0  0.8125 1.125 0  0.84375 1.125 0  0.875 1.125 0  0.90625 1.125 0  0.9375 1.125 0  0.96875 1.125 0  1 1.125 0  0.03125 1.171875 0  0 1.171875 0  0.0625 1.171875 0  0.09375 1.171875 0  0.125 1.171875 0  0.15625 1.171875 0  0.1875 1.171875 0  0.21875 1.171875 0  0.25 1.171875 0  0.28125 1.171875 0  0.3125 1.171875 0  0.34375 1.171875 0  0.375 1.171875 0  0.40625 1.171875 0  0.4375 1.171875 0  0.46875 1.171875 0  0.5 1.171875 0  0.53125 1.171875 0  0.5625 1.171875 0  0.59375 1.171875 0  0.625 1.171875 0  0.65625 1.171875 0  0.6875 1.171875 0  0.71875 1.171875 0  0.75 1.171875 0  0.78125 1.171875 0  0.8125 1.171875 0  0.84375 1.171875 0  0.875 1.171875 0  0.90625 1.171875 0  0.9375 1.171875 0  0.96875 1.171875 0  1 1.171875 0  0.03125 1.21875 0  0 1.21875 0  0.0625 1.21875 0  0.09375 1.21875 0  0.125 1.21875 0  0.15625 1.21875 0  0.1875 1.21875 0  0.21875 1.21875 0  0.25 1.21875 0  0.28125 1.21875 0  0.3125 1.21875 0  0.34375 1.21875 0  0.375 1.21875 0  0.40625 1.21875 0  0.4375 1.21875 0  0.46875 1.21875 0  0.5 1.21875 0  0.53125 1.21875 0  0.5
[...]
<PointData  Vectors="u"> 
<DataArray  type="Float64"  Name="u"  NumberOfComponents="3" format="ascii">1.3955404675073235e-02 7.1483889020979323e-04 0.0000000000000000e+00  1.6069791556614754e-02 3.9785374971178875e-03 0.0000000000000000e+00  1.7687409115587707e-02 4.2614233567059116e-03 0.0000000000000000e+00  1.5171196263328869e-02 9.3327918796643470e-04 0.0000000000000000e+00  1.5510025042158405e-02 7.2431043934431836e-03 0.0000000000000000e+00  1.7290578720736839e-02 7.8398363700029009e-03 0.0000000000000000e+00  1.4412609355135666e-02 1.0161683877335057e-02 0.0000000000000000e+00  1.5983298360232868e-02 1.1001191974206992e-02 0.0000000000000000e+00  1.2977827964326113e-02 1.2614694400573714e-02 0.0000000000000000e+00  1.4321153113801175e-02 1.3633887283514641e-02 0.0000000000000000e+00  1.1313336688194545e-02 1.4536444626396826e-02 0.0000000000000000e+00  1.2456519791407187e-02 1.5676392854622856e-02 0.0000000000000000e+00  9.5086658291009627e-03 1.5882753692241115e-02 0.0000000000000000e+00  1.0478565249276501e-02 1.7090455634677235e-02 0.0000000000000000e+00  7.6420303550174158e-03 1.6629715948708379e-02 0.0000000000000000e+00  8.4624109154277632e-03 1.7858250463790557e-02 0.0000000000000000e+00  5.7823636301033050e-03 1.6773394310276073e-02 0.0000000000000000e+00  6.4741485675601177e-03 1.7981426022180214e-02 0.0000000000000000e+00  3.9902706072052806e-03 1.6328592048796952e-02 0.0000000000000000e+00  4.5717558693205342e-03 1.7479964469263223e-02 0.0000000000000000e+00  2.3186169731054516e-03 1.5327219410948729e-02 0.0000000000000000e+00  2.8059097293596899e-03 1.6390538246522399e-02 0.0000000000000000e+00  8.1302835560761641e-04 1.3816337154274662e-02 0.0000000000000000e+00  1.2201922391454391e-03 1.4764696918490007e-02 0.0000000000000000e+00  -4.8774818855883281e-04 1.1856173576605211e-02 0.0000000000000000e+00  -1.4835088542714355e-04 1.2666858612850213e-02 0.0000000000000000e+00  -1.5514625677726520e-03 9.5180417711754964e-03 0.0000000000000000e+00  -1.2690514706469294e-03 1.0172357778465325e-02 0.0000000000000000e+00  -2.3521425697392798e-03 6.8823461145874378e-03 0.0000000000000000e+00  -2.1172839188661127e-03 7.3654337793842605e-03 0.0000000000000000e+00  -2.8698917733455879e-03 4.0365556086950308e-03 0.0000000000000000e+00  -2.6744277141491153e-03 4.3373311920767129e-03 0.0000000000000000e+00  -3.0907707716706636e-03 1.0732624029338330e-03 0.0000000000000000e+00  -2.9276544470944379e-03 1.1843608680067300e-03 0.0000000000000000e+00  -3.0067360887774410e-03 -1.9117932963051499e-03 0.0000000000000000e+00  -2.8700316644457578e-03 -1.9939546155494786e-03 0.0000000000000000e+00  -2.6157019582575426e-03 -4.8216710525539911e-03 0.0000000000000000e+00  -2.5005547239129989e-03 -5.0968066792911933e-03 0.0000000000000000e+00  -1.9216344126517038e-03 -7.5602585908623489e-03 0.0000000000000000e+00  -1.8243853264728865e-03 -8.0240222834374510e-03 0.0000000000000000e+00  -9.3472695540141020e-04 -1.0034342118037403e-02 0.0000000000000000e+00  -8.5303935505584376e-04 -1.0678110282269348e-02 0.0000000000000000e+00  3.2836458786941725e-04 -1.2155811605499101e-02 0.0000000000000000e+00  3.9518146425522246e-04 -1.2966378799726929e-02 0.0000000000000000e+00  1.8442170318921352e-03 -1.3843952361347327e-02 0.0000000000000000e+00  1.8948408176955298e-03 -1.4803222023294585e-02 0.0000000000000000e+00  3.5823838443446239e-03 -1.5027897467422195e-02 0.0000000000000000e+00  3.6128741072822272e-03 -1.6112509080826343e-02 0.0000000000000000e+00  5.5050946893978950e-03 -1.5649155184624692e-02 0.0000000000000000e+00  5.5082182069359983e-03 -1.6830132383188555e-02 0.0000000000000000e+00  7.5670193305132551e-03 -1.5664244622322535e-02 0.0000000000000000e+00  7.5312984801221882e-03 -1.6906601256729017e-02 0.0000000000000000e+00  9.7148713637431883e-03 -1.5047325500068065e-02 0.0000000000000000e+00  9.6236372189046626e-03 -1.6309682391000602e-02 0.0000000000000000e+00  1.1886170660831700e-02 -1.3792834542465588e-02 0.0000000000000000e+00  1.1716689075036410e-02 -1.5026937683474299e-02 0.0000000000000000e+00  1.4003681594279966e-02 -1.1918182805562583e-02 0.0000000000000000e+00  1.3727883550090513e-02 -1.3068214700491989e-02 0.0000000000000000e+00  1.5949538635600266e-02 -9.4675443746679040e-03 0.0000000000000000e+00  1.5541854998181318e-02 -1.0468662489465347e-02 0.0000000000000000e+00  1.7448215610989616e-02 -6.5234042948632952e-03 0.0000000000000000e+00  1.6925384814862242e-02 -7.2973010651690845e-03 0.0000000000000000e+00  1.7635750448310703e-02 -3.2783112943533380e-03 0.0000000000000000e+00  1.7187680501072479e-02 -3.7098824767903670e-03 0.0000000000000000e+00  1.4963910129755599e-02 -3.0104599781959198e-04 0.0000000000000000e+00  1.4380158142007332e-02 -4.1235956578351872e-04 0.0000000000000000e+00  1.9589268595836765e-02 5.0578214541161046e-03 0.0000000000000000e+00  1.7004368256638563e-02 1.3999428511145043e-03 0.0000000000000000e+00  1.9072014081069875e-02 9.2940992178004184e-03 0.0000000000000000e+00  1.7691110929881210e-02 1.2983572395894698e-02 0.0000000000000000e+00  1.5920979731964140e-02 1.5999293163799787e-02 0.0000000000000000e+00  1.3929801722856898e-02 1.8292823985869157e-02 0.0000000000000000e+00  1.1819903516279163e-02 1.9839886200520827e-02 0.0000000000000000e+00  9.6727192048677753e-03 2.0635943225960053e-02 0.0000000000000000e+00  7.5585387821146552e-03 2.0695265729984660e-02 0.0000000000000000e+00  5.5390020660355758e-03 2.0049621492582798e-02 0.0000000000000000e+00  3.6672695623627110e-03 1.8746755604309717e-02 0.0000000000000000e+00  1.9890173905253920e-03 1.6848524906740329e-02 0.0000000000000000e+00  5.4249712797227424e-04 1.4429085387134829e-02 0.0000000000000000e+00  -6.4057058852840518e-04 1.1572912635291746e-02 0.0000000000000000e+00  -1.5350642958021361e-03 8.3730319703420163e-03 0.0000000000000000e+00  -2.1218069572721547e-03 4.9291348812110962e-03 0.0000000000000000e+00  -2.3876794523923100e-03 1.3459157540021663e-03 0.0000000000000000e+00  -2.3253258010962562e-03 -2.2687192012846762e-03 0.0000000000000000e+00  -1.9334862499616494e-03 -5.8052977634972577e-03 0.0000000000000000e+00  -1.2169795252952250e-03 -9.1546122837840686e-03 0.0000000000000000e+00  -1.8725500161634556e-04 -1.2209518656848210e-02 0.0000000000000000e+00  1.1373199027100594e-03 -1.4866971615948779e-02 0.0000000000000000e+00  2.7306725844557936e-03 -1.7030124930645461e-02 0.0000000000000000e+00  4.5586385588514697e-03 -1.8610683305224862e-02 0.0000000000000000e+00  6.5780865735065603e-03 -1.9531332206752246e-02 0.0000000000000000e+00  8.7365073394287396e-03 -1.9728340654256219e-02 0.0000000000000000e+00  1.0971137969030221e-02 -1.9154116799274323e-02 0.0000000000000000e+00  1.3207890861921473e-02 -1.7779721320584429e-02 0.0000000000000000e+00  1.5356628665629962e-02 -1.5597201001572011e-02 0.0000000000000000e+00  1.7290365894234262e-02 -1.2622537146465105e-02 0.0000000000000000e+00  1.8747228615023061e-02 -8.9054476684572309e-03 0.0000000000000000e+00  1.8918391160096550e-02 -4.6057788274035533e-03 0.0000000000000000e+00  1.5474243667566567e-02 -8.5966355962619509e-04 0.0000000000000000e+00  2.2467767276715005e-02 6.0214684070027946e-03 0.0000000000000000e+00  1.9593603507321509e-02 1.8661058814457797e-03 0.0000000000000000e+00  2.1872350179017900e-02 1.1024185918114333e-02 0.0000000000000000e+00  2.0372002961667891e-02 1.5332238490467984e-02 0.0000000000000000e+00  1.8458044906503081e-02 1.8797380565838129e-02 0.0000000000000000e+00  1.6306209529342537e-02 2.1383672425710591e-02 0.0000000000000000e+00  1.4026440911391028e-02 2.3083011003755042e-02 0.0000000000000000e+00  1.1708097464596666e-02 2.3907124926654241e-02 0.0000000000000000e+00  9.4286033855671015e-03 2.3885796702099765e-02 0.0000000000000000e+00  7.2544420959632892e-03 2.3065440039120113e-02 0.0000000000000000e+00  5.2430857199416156e-03 2.1507389941115528e-02 0.0000000000000000e+00  3.4426217388683574e-03 1.9286154998826799e-02 0.0000000000000000e+00  1.8935474988317008e-03 1.6487494030740370e-02 0.0000000000000000e+00  6.2844592892557247e-04 1.3206716836674260e-02 0.0000000000000000e+00  -3.2648131236633613e-04 9.5468657971444180e-03 0.0000000000000000e+00  -9.5179249893249940e-04 5.6172444508309849e-03 0.0000000000000000e+00  -1.2336427245138990e-03 1.5317723424223292e-03 0.0000000000000000e+00  -1.1643793787159524e-03 -2.5923215711065456e-03 0.0000000000000000e+00  -7.4195605754675317e-04 -6.6360688500915555e-03 0.0000000000000000e+00  2.9245016082250910e-05 -1.0480114267233718e-02 0.0000000000000000e+00  1.1384821456454275e-03 -1.4006414632760381e-02 0.0000000000000000e+00  2.5674764279004386e-03 -1.7099881850649385e-02 0.0000000000000000e+00  4.2900870043981491e-03 -1.9650404916990227e-02 0.0000000000000000e+00  6.2709516200032695e-03 -2.1554946316803342e-02 0.0000000000000000e+00  8.4650086412715788e-03 -2.2719966870819706e-02 0.0000000000000000e+00  1.0816116616537879e-02 -2.3063926496011095e-02 0.0000000000000000e+00  1.3256600212508926e-02 -2.2519933859314025e-02 0.0000000000000000e+00  1.5705226696849234e-02 -2.1038312256699016e-02 0.0000000000000000e+00  1.8062215661201825e-02 -1.8589202205768946e-02 0.0000000000000000e+00  2.0183698727402433e-02 -1.5166187865223937e-02 0.0000000000000000e+00  2.1762711689814647e-02 -1.0799931121775345e-02 0.0000000000000000e+00  2.1825598034597677e-02 -5.6675417777878054e-03 0.0000000000000000e+00  1.7636211137307286e-02 -1.3607494114966838e-03 0.0000000000000000e+00  2.6341825272889922e-02 7.0878051069353000e-03 0.0000000000000000e+00  2.2981978834010472e-02 2.3503435749713062e-03 0.0000000000000000e+00  2.5696261792687424e-02 1.2934277031374416e-02 0.0000000000000000e+00  2.4064427696434184e-02 1.7918254107773857e-02 0.0000000000000000e+00  2.1987641461114538e-02 2.1871027911407340e-02 0.0000000000000000e+00  1.9654804614721515e-02 2.4771045117950904e-02 0.0000000000000000e+00  1.7186152189671105e-02 2.6628528027927836e-02 0.0000000000000000e+00  1.4680409605395612e-02 2.7473919373802447e-02 0.0000000000000000e+00  1.2221525772335484e-02 2.7355109487760147e-02 0.0000000000000000e+00  9.8821385077021168e-03 2.6335592834655037e-02 0.0000000000000000e+00  7.7228852983627135e-03 2.4492520342900188e-02 0.0000000000000000e+00  5.7950642489040111e-03 2.1914803742342878e-02 0.0000000000000000e+00  4.1398446713475368e-03 1.8701268713373104e-02 0.0000000000000000e+00  2.7911623197558531e-03 1.4958921380304160e-02 0.0000000000000000e+00  1.7747388185983424e-03 1.0801498780833679e-02 0.0000000000000000e+00  1.1107007324181540e-03 6.3480278236136582e-03 0.0000000000000000e+00  8.1243998247513909e-04 1.7217894769575104e-03 0.0000000000000000e+00  8.8853722556611094e-04 -2.9509153745418538e-03 0.0000000000000000e+00  1.3412554862987211e-03 -7.5416013416160499e-03 0.0000000000000000e+00  2.1676438342157064e-03 -1.1920845485725548e-02 0.0000000000000000e+00  3.3576937436077953e-03 -1.5959289741165811e-02 0.0000000000000000e+00  4.8945503548529484e-03 -1.9529171806643882e-02 0.0000000000000000e+00  6.7523503122234318e-03 -2.2505839440299501e-02 0.0000000000000000e+00  8.8959341904788301e-03 -2.4769784249264206e-02 0.0000000000000000e+00  1.1278620263985789e-02 -2.6208841667680664e-02 0.0000000000000000e+00  1.3841698903299851e-02 -2.6720777396240920e-02 0.0000000000000000e+00  1.6512473973691346e-02 -2.6216045235034600e-02 0.0000000000000000e+00  1.9202894037032969e-02 -2.4620714285626684e-02 0.0000000000000000e+00  2.1802485697850437e-02 -2.1879669241265644e-02 0.0000000000000000e+00  2.4148194912830094e-02 -1.7961553167176604e-02 0.0000000000000000e+00  2.5878102833223275e-02 -1.2877211768821853e-02 0.0000000000000000e+00  2.5815980222369091e-02 -6.8238416025568262e-03 0.0000000000000000e+00  2.0683586891000624e-02 -1.8592352575872687e-03 0.0000000000000000e+00  3.1257510394751740e-02 8.2527582515236567e-03 0.0000000000000000e+00  2.7211414204100698e-02 2.8742347674786239e-03 0.0000000000000000e+00  3.0589576395319975e-02 1.5014926083880668e-02 0.0000000000000000e+00  2.8822349444990496e-02 2.0726993473871701e-02 0.0000000000000000e+00  2.6576803413026928e-02 2.5199991420603605e-02 0.0000000000000000e+00  2.4061210961798404e-02 2.8428617034550956e-02 0.0000000000000000e+00  2.1407806175516429e-02 3.0444273999008214e-02 0.0000000000000000e+00  1.8723375315266931e-02 3.1299127451609302e-02 0.0000000000000000e+00  1.6099174004824565e-02 3.1062293608196921e-02 0.0000000000000000e+00  1.3611406597681397e-02 2.9817153493276665e-02 0.0000000000000000e+00  1.1324263976468749e-02 2.7659166716911075e-02 0.0000000000000000e+00  9.2890134933646638e-03 2.4693578902905158e-02 0.0000000000000000e+00  7.5478736483603221e-03 2.1033650349958549e-02 0.0000000000000000e+00  6.1327980554598720e-03 1.6798927942796148e-02 0.0000000000000000e+00  5.0696555118048998e-03 1.2114046576487823e-02 0.0000000000000000e+00  4.3763745076671060e-03 7.1077003931719019e-03 0.0000000000000000e+00  4.0669548318997707e-03 1.9118988626241125e-03 0.0000000000000000e+00  4.1489136708714805e-03 -3.3385053146459606e-03 0.0000000000000000e+00  4.6263309017070993e-03 -8.5063898063322974e-03 0.0000000000000000e+00  5.4968476264952541e-03 -1.3452664552055306e-02 0.0000000000000000e+00  6.7533855614494874e-03 -1.8037048715605502e-02 0.0000000000000000e+00  8.3807865811196935e-03 -2.2118740539491456e-02 0.0000000000000000e+00  1.0356131457487754e-02 -2.5557761315097474e-02 0.0000000000000000e+00  1.2645451331156514e-02 -2.8216471883817346e-02 0.0000000000000000e+00  1.5203172215634110e-02 -2.9961742310139244e-02 0.0000000000000000e+00  1.7969179142064012e-02 -3.0667515499903999e-02 0.0000000000000000e+00  2.0867969321767797e-02 -3.0217856447381647e-02 0.0000000000000000e+00  2.3805299686534238e-02 -2.8510442303633678e-02 0.0000000000000000e+00  2.6660724086169357e-02 -2.5460661771267806e-02 0.0000000000000000e+00  2.9249695334598921e-02 -2.1008331069228191e-02 0.0000000000000000e+00  3.1145225231205911e-02 -1.5141554449291900e-02 0.0000000000000000e+00  3.0923041982434583e-02 -8.0781936962977426e-03 0.0000000000000000e+00  2.4606859600259184e-02 -2.3743052100384000e-03 0.0000000000000000e+00  3.7307850001971433e-02 9.5166850347102230e-03 0.0000000000000000e+00  3.2355524322931969e-02 3.4546377393120330e-03 0.0000000000000000e+00  3.6650356555044519e-02 1.7262429343471657e-02 0.0000000000000000e+00  3.4753297954229691e-02 2.3749195529405021e-02 0.0000000000000000e+00  3.2346904296791705e-02 2.8767170268155853e-02 0.0000000000000000e+00  2.9665738513126316e-02 3.2330519716364761e-02 0.0000000000000000e+00  2.6853816737424232e-02 3.4495593442967216e-02 0.0000000000000000e+00  2.4026190200681946e-02 3.5340381152907045e-02 0.0000000000000000e+00  2.1278335245911113e-02 3.4959007442730131e-02 0.0000000000000000e+00  1.8689356550376887e-02 3.3458304432019227e-02 0.0000000000000000e+00  1.6322523480113871e-02 3.0954774352584733e-02 0.0000000000000000e+00  1.4228499157934522e-02 2.7572217411982416e-02 0.0000000000000000e+00  1.2445419429068679e-02 2.3439538170217145e-02 0.0000000000000000e+00  1.1003488149207334e-02 1.8689454417414202e-02 0.0000000000000000e+00  9.9237141116002899e-03 1.3457279735589661e-02 0.0000000000000000e+00  9.2232386965624292e-03 7.8806532086532158e-03 0.0000000000000000e+00  8.9125245433001390e-03 2.0991678430660413e-03 0.0000000000000000e+00  9.0005323482212629e-03 -3.7452737423053087e-03 0.0000000000000000e+00  9.4904586557147189e-03 -9.5082884724998467e-03 0.0000000000000000e+00  1.0383844246764754e-02 -1.5042613864943625e-02 0.0000000000000000e+00  1.1675686819084270e-02 -2.0197889303979661e-02 0.0000000000000000e+00  1.3356403638178416e-02 -2.4820828765405242e-02 0.0000000000000000e+00  1.5406972985901603e-02 -2.8755649363116715e-02 0.0000000000000000e+00  1.7798829160617629e-02 -3.1845343179981646e-02 0.0000000000000000e+00  2.0489638188697774e-02 -3.3933417562198288e-02 0.0000000000000000e+00  2.3421869227075315e-02 -3.4866585312262263e-02 0.0000000000000000e+00  2.6519515583575851e-02 -3.4498116659322842e-02 0.0000000000000000e+00  2.9685020480728210e-02 -3.2692068791498677e-02 0.0000000000000000e+00  3.2788845875717065e-02 -2.9328607045221888e-02 0.0000000000000000e+00  3.5623675696706103e-02 -2.4312816736058632e-02 0.0000000000000000e+00  3.7685723228962388e-02 -1.7604788858913509e-02 0.0000000000000000e+00  3.7250249411331968e-02 -9.4423732471335675e-03 0.0000000000000000e+00  2.9465036041411170e-02 -2.9306048853149401e-03 0.0000000000000000e+00  4.4622859025093102e-02 1.0875357535131367e-02 0.0000000000000000e+00  3.8514775637554108e-02 4.1051478061422241e-03 0.0000000000000000e+00  4.4017733234884046e-02 1.9664132686961700e-02 0.0000000000000000e+00  4.2006849490179229e-02 2.6960385932012134e-02 0.0000000000000000e+00  3.9463134492783297e-02 3.2533698598085345e-02 0.0000000000000000e+00  3.6653532517114472e-02 3.6422584111718184e-02 0.0000000000000000e+00  3.3734570182562242e-02 3.8713855494283390e-02 0.0000000000000000e+00  3.0827459123130806e-02 3.9516803360829994e-02 0.0000000000000000e+00  2.8029732250779066e-02 3.8955620192255305e-02 0.0000000000000000e+00  2.5418889262196147e-02 3.7164822834754106e-02 0.0000000000000000e+00  2.3054528367055495e-02 3.4285339480203764e-02 0.0000000000000000e+00  2.0980816821464351e-02 3.0461636277056101e-02 0.0000000000000000e+00  1.9229944128829682e-02 2.5839514365615629e-02 0.0000000000000000e+00  1.7823905545991184e-02 2.0564741250605062e-02 0.0000000000000000e+00  1.6778973638955939e-02 1.4782636243607894e-02 0.0000000000000000e+00  1.6105309196487661e-02 8.6379319316359695e-03 0.0000000000000000e+00  1.5812321510569424e-02 2.2758087066692919e-03 0.0000000000000000e+00  1.5905447969515488e-02 -4.1574719858955608e-03 0.0000000000000000e+00  1.6391348328218109e-02 -1.0512779176587286e-02 0.0000000000000000e+00  1.7272589550550135e-02 -1.6637179106026738e-02 0.0000000000000000e+00  1.8551500964164275e-02 -2.2372347412662079e-02 0.0000000000000000e+00  2.0223933771247392e-02 -2.7553824213826152e-02 0.0000000000000000e+00  2.2280379362319698e-02 -3.2010617296228658e-02 0.0000000000000000e+00  2.4700205646871375e-02 -3.5565495783059502e-02 0.0000000000000000e+00  2.7450039773166110e-02 -3.8036559886366998e-02 0.0000000000000000e+00  3.0479000914016806e-02 -3.9239556922382256e-02 0.0000000000000000e+00  3.3715670014087824e-02 -3.8991811692149415e-02 0.0000000000000000e+00  3.7062862185954941e-02 -3.7117145175025144e-02 0.0000000000000000e+00  4.0384679496042526e-02 -3.3452800775645150e-02 0.0000000000000000e+00  4.3450060173280479e-02 -2.7860744964481952e-02 0.0000000000000000e+00  4.5665732606607522e-02 -2.0264980875962835e-02 0.0000000000000000e+00  4.4945780597301269e-02 -1.0920994455972376e-02 0.0000000000000000e+00  3.5356673788798684e-02 -3.5479329876196425e-03 0.0000000000000000e+00  5.3363059819056681e-02 1.2318141240792422e-02 0.0000000000000000e+00  4.5811199069960583e-02 4.8375379260041356e-03 0.0000000000000000e+00  5.2863327936753621e-02 2.2194003748623483e-02 0.0000000000000000e+00  5.0766783148323898e-02 3.0314814146195544e-02 0.0000000000000000e+00  4.8126938875465930e-02 3.6431191068617877e-02 0.0000000000000000e+00  4.5249859025094187e-02 4.0613199363369247e-02 0.0000000000000000e+00  4.2304532355375325e-02 4.2986112474613557e-02 0.0000000000000000e+00  3.9415622884865997e-02 4.3697938614562490e-02 0.0000000000000000e+00  3.6678459730258212e-02 4.2909671215583305e-02 0.0000000000000000e+00  3.4163926007848400e-02 4.0788720680561580e-02 0.0000000000000000e+00  3.1921859143881792e-02 3.7504358701281978e-02 0.0000000000000000e+00  2.9984863564083052e-02 3.3223887615883949e-02 0.0000000000000000e+00  2.8372496539222244e-02 2.8110708210155464e-02 0.0000000000000000e+00  2.7095281770992401e-02 2.2323013176136483e-02 0.0000000000000000e+00  2.6158120984752137e-02 1.6014060952357065e-02 0.0000000000000000e+00  2.5563859765437149e-02 9.3330897597058080e-03 0.0000000000000000e+00  2.5314800849563807e-02 2.4269374600607405e-03 0.0000000000000000e+00  2.5415789539888791e-02 -4.5573947810958375e-03 0.0000000000000000e+00