<?xml version="1.0"?>
<VTKFile type="UnstructuredGrid"  version="0.1"  >
<UnstructuredGrid>
<Piece  NumberOfPoints="759" NumberOfCells="1408">
<Points>
<DataArray  type="Float64"  NumberOfComponents="3"  format="ascii">0 0.46875 0  0.03125 0.46875 0  0.03125 0.515625 0  0 0.515625 0  0.0625 0.46875 0  0.0625 0.515625 0  0.09375 0.46875 0  0.09375 0.515625 0  0.125 0.46875 0  0.125 0.515625 0  0.15625 0.46875 0  0.15625 0.515625 0  0.1875 0.46875 0  0.1875 0.515625 0  0.21875 0.46875 0  0.21875 0.515625 0  0.25 0.46875 0  0.25 0.515625 0  0.28125 0.46875 0  0.28125 0.515625 0  0.3125 0.46875 0  0.3125 0.515625 0  0.34375 0.46875 0  0.34375 0.515625 0  0.375 0.46875 0  0.375 0.515625 0  0.40625 0.46875 0  0.40625 0.515625 0  0.4375 0.46875 0  0.4375 0.515625 0  0.46875 0.46875 0  0.46875 0.515625 0  0.5 0.46875 0  0.5 0.515625 0  0.53125 0.46875 0  0.53125 0.515625 0  0.5625 0.46875 0  0.5625 0.515625 0  0.59375 0.46875 0  0.59375 0.515625 0  0.625 0.46875 0  0.625 0.515625 0  0.65625 0.46875 0  0.65625 0.515625 0  0.6875 0.46875 0  0.6875 0.515625 0  0.71875 0.46875 0  0.71875 0.515625 0  0.75 0.46875 0  0.75 0.515625 0  0.78125 0.46875 0  0.78125 0.515625 0  0.8125 0.46875 0  0.8125 0.515625 0  0.84375 0.46875 0  0.84375 0.515625 0  0.875 0.46875 0  0.875 0.515625 0  0.90625 0.46875 0  0.90625 0.515625 0  0.9375 0.46875 0  0.9375 0.515625 0  0.96875 0.46875 0  0.96875 0.515625 0  1 0.46875 0  1 0.515625 0  0.03125 0.5625 0  0 0.5625 0  0.0625 0.5625 0  0.09375 0.5625 0  0.125 0.5625 0  0.15625 0.5625 0  0.1875 0.5625 0  0.21875 0.5625 0  0.25 0.5625 0  0.28125 0.5625 0  0.3125 0.5625 0  0.34375 0.5625 0  0.375 0.5625 0  0.40625 0.5625 0  0.4375 0.5625 0  0.46875 0.5625 0  0.5 0.5625 0  0.53125 0.5625 0  0.5625 0.5625 0  0.59375 0.5625 0  0.625 0.5625 0  0.65625 0.5625 0  0.6875 0.5625 0  0.71875 0.5625 0  0.75 0.5625 0  0.78125 0.5625 0  0.8125 0.5625 0  0.84375 0.5625 0  0.875 0.5625 0  0.90625 0.5625 0  0.9375 0.5625 0  0.96875 0.5625 0  1 0.5625 0  0.03125 0.609375 0  0 0.609375 0  0.0625 0.609375 0  0.09375 0.609375 0  0.125 0.609375 0  0.15625 0.609375 0  0.1875 0.609375 0  0.21875 0.609375 0  0.25 0.609375 0  0.28125 0.609375 0  0.3125 0.609375 0  0.34375 0.609375 0  0.375 0.609375 0  0.40625 0.609375 0  0.4375 0.609375 0  0.46875 0.609375 0  0.5 0.609375 0  0.53125 0.609375 0  0.5625 0.609375 0  0.59375 0.609375 0  0.625 0.609375 0  0.65625 0.609375 0  0.6875 0.609375 0  0.71875 0.609375 0  0.75 0.609375 0  0.78125 0.609375 0  0.8125 0.609375 0  0.84375 0.609375 0  0.875 0.609375 0  0.90625 0.609375 0  0.9375 0.609375 0  0.96875 0.609375 0  1 0.609375 0  0.03125 0.65625 0  0 0.65625 0  0.0625 0.65625 0  0.09375 0.65625 0  0.125 0.65625 0  0.15625 0.65625 0  0.1875 0.65625 0  0.21875 0.65625 0  0.25 0.65625 0  0.28125 0.65625 0  0.3125 0.65625 0  0.34375 0.65625 0  0.375 0.65625 0  0.40625 0.65625 0  0.4375 0.65625 0  0.46875 0.65625 0  0.5 0.65625 0  0.53125 0.65625 0  0.5625 0.65625 0  0.59375 0.65625 0  0.625 0.65625 0  0.65625 0.65625 0  0.6875 0.65625 0  0.71875 0.65625 0  0.75 0.65625 0  0.78125 0.65625 0  0.8125 0.65625 0  0.84375 0.65625 0  0.875 0.65625 0  0.90625 0.65625 0  0.9375 0.65625 0  0.96875 0.65625 0  1 0.65625 0  0.03125 0.703125 0  0 0.703125 0  0.0625 0.703125 0  0.09375 0.703125 0  0.125 0.703125 0  0.15625 0.703125 0  0.1875 0.703125 0  0.21875 0.703125 0  0.25 0.703125 0  0.28125 0.703125 0  0.3125 0.703125 0  0.34375 0.703125 0  0.375 0.703125 0  0.40625 0.703125 0  0.4375 0.703125 0  0.46875 0.703125 0  0.5 0.703125 0  0.53125 0.703125 0  0.5625 0.703125 0  0.59375 0.703125 0  0.625 0.703125 0  0.65625 0.703125 0  0.6875 0.703125 0  0.71875 0.703125 0  0.75 0.703125 0  0.78125 0.703125 0  0.8125 0.703125 0  0.84375 0.703125 0  0.875 0.703125 0  0.90625 0.703125 0  0.9375 0.703125 0  0.96875 0.703125 0  1 0.703125 0  0.03125 0.75 0  0 0.75 0  0.0625 0.75 0  0.09375 0.75 0  0.125 0.75 0  0.15625 0.75 0  0.1875 0.75 0  0.21875 0.75 0  0.25 0.75 0  0.28125 0.75 0  0.3125 0.75 0  0.34375 0.75 0  0.375 0.75 0  0.40625 0.75 0  0.4375 0.75 0  0.46875 0.75 0  0.5 0.75 0  0.53125 0.75 0  0.5625 0.75 0  0.59375 0.75 0  0.625 0.75 0  0.65625 0.75 0  0.6875 0.75 0  0.71875 0.75 0  0.75 0.75 0  0.78125 0.75 0  0.8125 0.75 0  0.84375 0.75 0  0.875 0.75 0  0.90625 0.75 0  0.9375 0.75 0  0.96875 0.75 0  1 0.75 0  0.03125 0.796875 0  0 0.796875 0  0.0625 0.796875 0  0.09375 0.796875 0  0.125 0.796875 0  0.15625 0.796875 0  0.1875 0.796875 0  0.21875 0.796875 0  0.25 0.796875 0  0.28125 0.796875 0  0.3125 0.796875 0  0.34375 0.796875 0  0.375 0.796875 0  0.40625 0.796875 0  0.4375 0.796875 0  0.46875 0.796875 0  0.5 0.796875 0  0.53125 0.796875 0  0.5625 0.796875 0  0.59375 0.796875 0  0.625 0.796875 0  0.65625 0.796875 0  0.6875 0.796875 0  0.71875 0.796875 0  0.75 0.796875 0  0.78125 0.796875 0  0.8125 0.796875 0  0.84375 0.796875 0  0.875 0.796875 0  0.90625 0.796875 0  0.9375 0.796875 0  0.96875 0.796875 0  1 0.796875 0  0.03125 0.84375 0  0 0.84375 0  0.0625 0.84375 0  0.09375 0.84375 0  0.125 0.84375 0  0.15625 0.84375 0  0.1875 0.84375 0  0.21875 0.84375 0  0.25 0.84375 0  0.28125 0.84375 0  0.3125 0.84375 0  0.34375 0.84375 0  0.375 0.84375 0  0.40625 0.84375 0  0.4375 0.84375 0  0.46875 0.84375 0  0.5 0.84375 0  0.53125 0.84375 0  0.5625 0.84375 0  0.59375 0.84375 0  0.625 0.84375 0  0.65625 0.84375 0  0.6875 0.84375 0  0.71875 0.84375 0  0.75 0.84375 0  0.78125 0.84375 0  0.8125 0.84375 0  0.84375 0.84375 0  0.875 0.84375 0  0.90625 0.84375 0  0.9375 0.84375 0  0.96875 0.84375 0  1 0.84375 0  0.03125 0.890625 0  0 0.890625 0  0.0625 0.890625 0  0.09375 0.890625 0  0.125 0.890625 0  0.15625 0.890625 0  0.1875 0.890625 0  0.21875 0.890625 0  0.25 0.890625 0  0.28125 0.890625 0  0.3125 0.890625 0  0.34375 0.890625 0  0.375 0.890625 0  0.40625 0.890625 0  0.4375 0.890625 0  0.46875 0.890625 0  0.5 0.890625 0  0.53125 0.890625 0  0.5625 0.890625 0  0.59375 0.890625 0  0.625 0.890625 0  0.65625 0.890625 0  0.6875 0.890625 0  0.71875 0.890625 0  0.75 0.890625 0  0.78125 0.890625 0  0.8125 0.890625 0  0.84375 0.890625 0  0.875 0.890625 0  0.90625 0.890625 0  0.9375 0.890625 0  0.96875 0.890625 0  1 0.890625 0  0.03125 0.9375 0  0 0.9375 0  0.0625 0.9375 0  0.09375 0.9375 0  0.125 0.9375 0  0.15625 0.9375 0  0.1875 0.9375 0  0.21875 0.9375 0  0.25 0.9375 0  0.28125 0.9375 0  0.3125 0.9375 0  0.34375 0.9375 0  0.375 0.9375 0  0.40625 0.9375 0  0.4375 0.9375 0  0.46875 0.9375 0  0.5 0.9375 0  0.53125 0.9375 0  0.5625 0.9375 0  0.59375 0.9375 0  0.625 0.9375 0  0.65625 0.9375 0  0.6875 0.9375 0  0.71875 0.9375 0  0.75 0.9375 0  0.78125 0.9375 0  0.8125 0.9375 0  0.84375 0.9375 0  0.875 0.9375 0  0.90625 0.9375 0  0.9375 0.9375 0  0.96875 0.9375 0  1 0.9375 0  0.03125 0.984375 0  0 0.984375 0  0.0625 0.984375 0  0.09375 0.984375 0  0.125 0.984375 0  0.15625 0.984375 0  0.1875 0.984375 0  0.21875 0.984375 0  0.25 0.984375 0  0.28125 0.984375 0  0.3125 0.984375 0  0.34375 0.984375 0  0.375 0.984375 0  0.40625 0.984375 0  0.4375 0.984375 0  0.46875 0.984375 0  0.5 0.984375 0  0.53125 0.984375 0  0.5625 0.984375 0  0.59375 0.984375 0  0.625 0.984375 0  0.65625 0.984375 0  0.6875 0.984375 0  0.71875 0.984375 0  0.75 0.984375 0  0.78125 0.984375 0  0.8125 0.984375 0  0.84375 0.984375 0  0.875 0.984375 0  0.90625 0.984375 0  0.9375 0.984375 0  0.96875 0.984375 0  1 0.984375 0  0.03125 1.03125 0  0 1.03125 0  0.0625 1.03125 0  0.09375 1.03125 0  0.125 1.03125 0  0.15625 1.03125 0  0.1875 1.03125 0  0.21875 1.03125 0  0.25 1.03125 0  0.28125 1.03125 0  0.3125 1.03125 0  0.34375 1.03125 0  0.375 1.03125 0  0.40625 1.03125 0  0.4375 1.03125 0  0.46875 1.03125 0  0.5 1.03125 0  0.53125 1.03125 0  0.5625 1.03125 0  0.59375 1.03125 0  0.625 1.03125 0  0.65625 1.03125 0  0.6875 1.03125 0  0.71875 1.03125 0  0.75 1.03125 0  0.78125 1.03125 0  0.8125 1.03125 0  0.84375 1.03125 0  0.875 1.03125 0  0.90625 1.03125 0  0.9375 1.03125 0  0.96875 1.03125 0  1 1.03125 0  0.03125 1.078125 0  0 1.078125 0  0.0625 1.078125 0  0.09375 1.078125 0  0.125 1.078125 0  0.15625 1.078125 0  0.1875 1.078125 0  0.21875 1.078125 0  0.25 1.078125 0  0.28125 1.078125 0  0.3125 1.078125 0  0.34375 1.078125 0  0.375 1.078125 0  0.40625 1.078125 0  0.4375 1.078125 0  0.46875 1.078125 0  0.5 1.078125 0  0.53125 1.078125 0  0.5625 1.078125 0  0.59375 1.078125 0  0.625 1.078125 0  0.65625 1.078125 0  0.6875 1.078125 0  0.71875 1.078125 0  0.75 1.078125 0  0.78125 1.078125 0  0.8125 1.078125 0  0.84375 1.078125 0  0.875 1.078125 0  0.90625 1.078125 0  0.9375 1.078125 0  0.96875 1.078125 0  1 1.078125 0  0.03125 1.125 0  0 1.125 0  0.0625 1.125 0  0.09375 1.125 0  0.125 1.125 0  0.15625 1.125 0  0.1875 1.125 0  0.21875 1.125 0  0.25 1.125 0  0.28125 1.125 0  0.3125 1.125 0  0.34375 1.125 0  0.375 1.125 0  0.40625 1.125 0  0.4375 1.125 0  0.46875 1.125 0  0.5 1.125 0  0.53125 1.125 0  0.5625 1.125 0  0.59375 1.125 0  0.625 1.125 0  0.65625 1.125 0  0.6875 1.125 0  0.71875 1.125 0  0.75 1.125 0  0.78125 1.125 0  0.8125 1.125 0  0.84375 1.125 0  0.875 1.125 0  0.90625 1.125 0  0.9375 1.125 0  0.96875 1.125 0  1 1.125 0  0.03125 1.171875 0  0 1.171875 0  0.0625 1.171875 0  0.09375 1.171875 0  0.125 1.171875 0  0.15625 1.171875 0  0.1875 1.171875 0  0.21875 1.171875 0  0.25 1.171875 0  0.28125 1.171875 0  0.3125 1.171875 0  0.34375 1.171875 0  0.375 1.171875 0  0.40625 1.171875 0  0.4375 1.171875 0  0.46875 1.171875 0  0.5 1.171875 0  0.53125 1.171875 0  0.5625 1.171875 0  0.59375 1.171875 0  0.625 1.171875 0  0.65625 1.171875 0  0.6875 1.171875 0  0.71875 1.171875 0  0.75 1.171875 0  0.78125 1.171875 0  0.8125 1.171875 0  0.84375 1.171875 0  0.875 1.171875 0  0.90625 1.171875 0  0.9375 1.171875 0  0.96875 1.171875 0  1 1.171875 0  0.03125 1.21875 0  0 1.21875 0  0.0625 1.21875 0  0.09375 1.21875 0  0.125 1.21875 0  0.15625 1.21875 0  0.1875 1.21875 0  0.21875 1.21875 0  0.25 1.21875 0  0.28125 1.21875 0  0.3125 1.21875 0  0.34375 1.21875 0  0.375 1.21875 0  0.40625 1.21875 0  0.4375 1.21875 0  0.46875 1.21875 0  0.5 1.21875 0  0.53125 1.21875 0  0.5
[...]
<PointData  Vectors="u"> 
<DataArray  type="Float64"  Name="u"  NumberOfComponents="3" format="ascii">1.4116402272077009e-02 7.1452963556709157e-04 0.0000000000000000e+00  1.6277595855966276e-02 3.9893955506626879e-03 0.0000000000000000e+00  1.7909145508418784e-02 4.2714880831791488e-03 0.0000000000000000e+00  1.5337467661806721e-02 9.3240338081369118e-04 0.0000000000000000e+00  1.5726479998392391e-02 7.2650174947941036e-03 0.0000000000000000e+00  1.7523749890659683e-02 7.8605031952021162e-03 0.0000000000000000e+00  1.4635500752490769e-02 1.0194596239690636e-02 0.0000000000000000e+00  1.6218955720104105e-02 1.1032495007088600e-02 0.0000000000000000e+00  1.3206365479922055e-02 1.2658699208026520e-02 0.0000000000000000e+00  1.4558908046414507e-02 1.3675998607668030e-02 0.0000000000000000e+00  1.1547068364786511e-02 1.4591625321136276e-02 0.0000000000000000e+00  1.2696880466689186e-02 1.5729457309452542e-02 0.0000000000000000e+00  9.7472980525269391e-03 1.5949098175897940e-02 0.0000000000000000e+00  1.0721974577114641e-02 1.7154518984848491e-02 0.0000000000000000e+00  7.8853444394390709e-03 1.6707074498469920e-02 0.0000000000000000e+00  8.7091872762444095e-03 1.7933219197121503e-02 0.0000000000000000e+00  6.0301720249987725e-03 1.6861457726953896e-02 0.0000000000000000e+00  6.7244919529716946e-03 1.8067045119105028e-02 0.0000000000000000e+00  4.2423894195096536e-03 1.6426881384924555e-02 0.0000000000000000e+00  4.8257596288551570e-03 1.7575806542517128e-02 0.0000000000000000e+00  2.5748487863219340e-03 1.5435083831694067e-02 0.0000000000000000e+00  3.0635726758633710e-03 1.6496000815553084e-02 0.0000000000000000e+00  1.0731517815789125e-03 1.3932958145231260e-02 0.0000000000000000e+00  1.4814292521330283e-03 1.4879006117292199e-02 0.0000000000000000e+00  -2.2398372644743506e-04 1.1980574316485700e-02 0.0000000000000000e+00  1.1630152413935437e-04 1.2789078052576515e-02 0.0000000000000000e+00  -1.2843375427029399e-03 9.6491006891848766e-03 0.0000000000000000e+00  -1.0012054285914599e-03 1.0301401620356334e-02 0.0000000000000000e+00  -2.0819648584337602e-03 7.0188137937526674e-03 0.0000000000000000e+00  -1.8465189843800021e-03 7.5000831263175973e-03 0.0000000000000000e+00  -2.5969915137583322e-03 4.1770741924153547e-03 0.0000000000000000e+00  -2.4010612985516616e-03 4.4762530215350553e-03 0.0000000000000000e+00  -2.8154925119516804e-03 1.2163868203833449e-03 0.0000000000000000e+00  -2.6520354505516312e-03 1.3261287602538041e-03 0.0000000000000000e+00  -2.7294285202547957e-03 -1.7675729211758685e-03 0.0000000000000000e+00  -2.5925288558372680e-03 -1.8508385070585447e-03 0.0000000000000000e+00  -2.3367055926905517e-03 -4.6779063426987686e-03 0.0000000000000000e+00  -2.2215446526403821e-03 -4.9538889622088795e-03 0.0000000000000000e+00  -1.6412668303955765e-03 -7.4185196309500562e-03 0.0000000000000000e+00  -1.5442393627390111e-03 -7.8828753686706679e-03 0.0000000000000000e+00  -6.5326494717390753e-04 -9.8961942788770609e-03 0.0000000000000000e+00  -5.7210950792586414e-04 -1.0540309457291492e-02 0.0000000000000000e+00  6.1070614563602074e-04 -1.2022792774220539e-02 0.0000000000000000e+00  6.7657754266154529e-04 -1.2833479593537804e-02 0.0000000000000000e+00  2.1273104787522708e-03 -1.3717550743959145e-02 0.0000000000000000e+00  2.1764359098028043e-03 -1.4676738088190542e-02 0.0000000000000000e+00  3.8662200796114590e-03 -1.4909530335576435e-02 0.0000000000000000e+00  3.8944695481580608e-03 -1.5993890851140568e-02 0.0000000000000000e+00  5.7898219785838083e-03 -1.5540148859969722e-02 0.0000000000000000e+00  5.7897039114084593e-03 -1.6720746906230561e-02 0.0000000000000000e+00  7.8529925599500634e-03 -1.5565816315766950e-02 0.0000000000000000e+00  7.8126758693290790e-03 -1.6807713707654531e-02 0.0000000000000000e+00  1.0002713613860247e-02 -1.4960568307198335e-02 0.0000000000000000e+00  9.9050451381554640e-03 -1.6222440292451325e-02 0.0000000000000000e+00  1.2176840246171192e-02 -1.3718707961488772e-02 0.0000000000000000e+00  1.1998426722464367e-02 -1.4952359559893815e-02 0.0000000000000000e+00  1.4298488317771741e-02 -1.1857514293303142e-02 0.0000000000000000e+00  1.4010394909988115e-02 -1.3007186457676395e-02 0.0000000000000000e+00  1.6249774344756586e-02 -9.4210543261477354e-03 0.0000000000000000e+00  1.5825468449916252e-02 -1.0421947745666110e-02 0.0000000000000000e+00  1.7752577969996824e-02 -6.4917815032344995e-03 0.0000000000000000e+00  1.7208733699234775e-02 -7.2655754564472270e-03 0.0000000000000000e+00  1.7927576316012012e-02 -3.2623588772932180e-03 0.0000000000000000e+00  1.7459893211808578e-02 -3.6937572213647770e-03 0.0000000000000000e+00  1.5189945430105050e-02 -3.0009062022944943e-04 0.0000000000000000e+00  1.4590423009244208e-02 -4.1159118013354518e-04 0.0000000000000000e+00  1.9809736582996645e-02 5.0661773811571950e-03 0.0000000000000000e+00  1.7169907508315506e-02 1.3983234175619229e-03 0.0000000000000000e+00  1.9303856022592238e-02 9.3118692127627349e-03 0.0000000000000000e+00  1.7925724242720317e-02 1.3011100216954006e-02 0.0000000000000000e+00  1.6157624318324737e-02 1.6036968019115593e-02 0.0000000000000000e+00  1.4168986457894788e-02 1.8340959969566153e-02 0.0000000000000000e+00  1.2062184353534193e-02 1.9898674457762743e-02 0.0000000000000000e+00  9.9185038025646835e-03 2.0705422672867482e-02 0.0000000000000000e+00  7.8080848519182598e-03 2.0775304708818228e-02 0.0000000000000000e+00  5.7924370157051829e-03 2.0139907817461906e-02 0.0000000000000000e+00  3.9246081148710176e-03 1.8846793717009494e-02 0.0000000000000000e+00  2.2501761565401511e-03 1.6957638953584778e-02 0.0000000000000000e+00  8.0730789579770430e-04 1.4546427283101493e-02 0.0000000000000000e+00  -3.7234834823369269e-04 1.1697474169837043e-02 0.0000000000000000e+00  -1.2637319300049827e-03 8.5036602067299540e-03 0.0000000000000000e+00  -1.8477147530947871e-03 5.0645500297385676e-03 0.0000000000000000e+00  -2.1112142649619935e-03 1.4847309074820457e-03 0.0000000000000000e+00  -2.0468983926407954e-03 -2.1279770794088077e-03 0.0000000000000000e+00  -1.6535181690394327e-03 -5.6641659922424138e-03 0.0000000000000000e+00  -9.3588891117198027e-04 -9.0146702218215739e-03 0.0000000000000000e+00  9.4558504375739008e-05 -1.2072365277529746e-02 0.0000000000000000e+00  1.4194910543220297e-03 -1.4734203151179907e-02 0.0000000000000000e+00  3.0128871357899059e-03 -1.6903312760566551e-02 0.0000000000000000e+00  4.8406516590946908e-03 -1.8491352363311318e-02 0.0000000000000000e+00  6.8597421898161960e-03 -1.9420940126247749e-02 0.0000000000000000e+00  9.0177593463975966e-03 -1.9628258177736561e-02 0.0000000000000000e+00  1.1252072710637396e-02 -1.9065610067462799e-02 0.0000000000000000e+00  1.3488744973496296e-02 -1.7703936879207363e-02 0.0000000000000000e+00  1.5637769678797563e-02 -1.5535154587274605e-02 0.0000000000000000e+00  1.7572051380133267e-02 -1.2575106382613048e-02 0.0000000000000000e+00  1.9028165880453588e-02 -8.8733619382267166e-03 0.0000000000000000e+00  1.9188202287110843e-02 -4.5895414146303916e-03 0.0000000000000000e+00  1.5681246818178701e-02 -8.5876884502395672e-04 0.0000000000000000e+00  2.2684894207599875e-02 6.0281203709071866e-03 0.0000000000000000e+00  1.9756187344122652e-02 1.8639414829104779e-03 0.0000000000000000e+00  2.2100836635708134e-02 1.1038769386817651e-02 0.0000000000000000e+00  2.0603352800663957e-02 1.5355444652347229e-02 0.0000000000000000e+00  1.8691579266464444e-02 1.8829871328559119e-02 0.0000000000000000e+00  1.6542527664298739e-02 2.1425985957306853e-02 0.0000000000000000e+00  1.4266163497343892e-02 2.3135531446247328e-02 0.0000000000000000e+00  1.1951684781137882e-02 2.3970063274912988e-02 0.0000000000000000e+00  9.6763481623720043e-03 2.3959177842203642e-02 0.0000000000000000e+00  7.5064888635885353e-03 2.3149095473819353e-02 0.0000000000000000e+00  5.4994511261426855e-03 2.1600955957717997e-02 0.0000000000000000e+00  3.7032112510973544e-03 1.9389075878349017e-02 0.0000000000000000e+00  2.1581706081794309e-03 1.6599029603775330e-02 0.0000000000000000e+00  8.9682971024592471e-04 1.3325953803371609e-02 0.0000000000000000e+00  -5.4679124976359200e-05 9.6727320140622877e-03 0.0000000000000000e+00  -6.7697056948855120e-04 5.7485256572727753e-03 0.0000000000000000e+00  -9.5624232990059442e-04 1.6671306103251448e-03 0.0000000000000000e+00  -8.8487058504607469e-04 -2.4543280220063464e-03 0.0000000000000000e+00  -4.6082290651010315e-04 -6.4969649699398403e-03 0.0000000000000000e+00  3.1152029464499831e-04 -1.0341486821888452e-02 0.0000000000000000e+00  1.4214360212278139e-03 -1.3869890509070329e-02 0.0000000000000000e+00  2.8506816476060715e-03 -1.6967106032652075e-02 0.0000000000000000e+00  4.5731712652271172e-03 -1.9523018306044235e-02 0.0000000000000000e+00  6.5536175220446257e-03 -2.1434563492688737e-02 0.0000000000000000e+00  8.7470545540559077e-03 -2.2608153951518450e-02 0.0000000000000000e+00  1.1097458539536552e-02 -2.2962179228628456e-02 0.0000000000000000e+00  1.3537294740253000e-02 -2.2429656348475973e-02 0.0000000000000000e+00  1.5985487995382571e-02 -2.0960796463021937e-02 0.0000000000000000e+00  1.8342395908002292e-02 -1.8525608196382347e-02 0.0000000000000000e+00  2.0464052646193293e-02 -1.5117523326562299e-02 0.0000000000000000e+00  2.2041981752878109e-02 -1.0767021672166446e-02 0.0000000000000000e+00  2.2093538505617748e-02 -5.6509286316279717e-03 0.0000000000000000e+00  1.7841474755911340e-02 -1.3598293558883178e-03 0.0000000000000000e+00  2.6554408915246196e-02 7.0926762565340137e-03 0.0000000000000000e+00  2.3140646039837048e-02 2.3477420824315684e-03 0.0000000000000000e+00  2.5920206045618063e-02 1.2945533347917364e-02 0.0000000000000000e+00  2.4291375843961176e-02 1.7936851357878012e-02 0.0000000000000000e+00  2.2217001824686472e-02 2.1897909431642649e-02 0.0000000000000000e+00  1.9887246164047773e-02 2.4806998275680812e-02 0.0000000000000000e+00  1.7422363249800562e-02 2.6674158554882994e-02 0.0000000000000000e+00  1.4920902831059886e-02 2.7529638062498540e-02 0.0000000000000000e+00  1.2466629358873778e-02 2.7421123165044997e-02 0.0000000000000000e+00  1.0132016840987492e-02 2.6411899493795764e-02 0.0000000000000000e+00  7.9775597964092133e-03 2.4578908591746881e-02 0.0000000000000000e+00  6.0544316338825210e-03 2.2010856365170195e-02 0.0000000000000000e+00  4.4036928552234041e-03 1.8806370006859089e-02 0.0000000000000000e+00  3.0591855785877201e-03 1.5072267686593279e-02 0.0000000000000000e+00  2.0465515978221557e-03 1.0922111752887429e-02 0.0000000000000000e+00  1.3858521699983007e-03 6.4747697810968079e-03 0.0000000000000000e+00  1.0904285384032136e-03 1.8533804962276139e-03 0.0000000000000000e+00  1.1688264576807143e-03 -2.8158791732286140e-03 0.0000000000000000e+00  1.6232900761447692e-03 -7.4046284234481341e-03 0.0000000000000000e+00  2.4508675101144379e-03 -1.1783528825577655e-02 0.0000000000000000e+00  3.6415679797184471e-03 -1.5823285951792380e-02 0.0000000000000000e+00  5.1785742908904767e-03 -1.9396179676997707e-02 0.0000000000000000e+00  7.0360813989059417e-03 -2.2377577668651265e-02 0.0000000000000000e+00  9.1790107919981750e-03 -2.4647968442037149e-02 0.0000000000000000e+00  1.1560784512025813e-02 -2.6095160536399070e-02 0.0000000000000000e+00  1.4122820632182401e-02 -2.6616868159394402e-02 0.0000000000000000e+00  1.6792575421997920e-02 -2.6123468247589213e-02 0.0000000000000000e+00  1.9482168872852861e-02 -2.4540926962778774e-02 0.0000000000000000e+00  2.2081281880405798e-02 -2.1813999027309367e-02 0.0000000000000000e+00  2.4426786322299842e-02 -1.7911168122782237e-02 0.0000000000000000e+00  2.6155298096925118e-02 -1.2843080155290301e-02 0.0000000000000000e+00  2.6081730840106534e-02 -6.8066072373419865e-03 0.0000000000000000e+00  2.0887048432191985e-02 -1.8581570531345777e-03 0.0000000000000000e+00  3.1464579261998978e-02 8.2557503408090590e-03 0.0000000000000000e+00  2.7365436237402768e-02 2.8712404381511865e-03 0.0000000000000000e+00  3.0807989356433686e-02 1.5022668881059005e-02 0.0000000000000000e+00  2.9043921849447166e-02 2.0740692487789154e-02 0.0000000000000000e+00  2.6801027528114890e-02 2.5220866546151022e-02 0.0000000000000000e+00  2.4288822497415243e-02 2.8457715097632841e-02 0.0000000000000000e+00  2.1639552616087257e-02 3.0482440051380722e-02 0.0000000000000000e+00  1.8959817857517335e-02 3.1346992512961677e-02 0.0000000000000000e+00  1.6340677405229626e-02 3.1120267438760178e-02 0.0000000000000000e+00  1.3858158306196539e-02 2.9885421105863553e-02 0.0000000000000000e+00  1.1576295470568531e-02 2.7737688620572201e-02 0.0000000000000000e+00  9.5462182601313266e-03 2.4782094851261052e-02 0.0000000000000000e+00  7.8100243185648113e-03 2.1131686311980643e-02 0.0000000000000000e+00  6.3995614945040235e-03 1.6905805820060075e-02 0.0000000000000000e+00  5.3406081863071374e-03 1.2228896240221665e-02 0.0000000000000000e+00  4.6510170745285261e-03 7.2294736064274483e-03 0.0000000000000000e+00  4.3447286921728875e-03 2.0393846325784518e-03 0.0000000000000000e+00  4.4292172255689811e-03 -3.2066641059767145e-03 0.0000000000000000e+00  4.9085378138401855e-03 -8.3716788209165886e-03 0.0000000000000000e+00  5.7803257550421705e-03 -1.3316679368483318e-02 0.0000000000000000e+00  7.0375182141252787e-03 -1.7901475293458140e-02 0.0000000000000000e+00  8.6649942488502135e-03 -2.1985334424781618e-02 0.0000000000000000e+00  1.0639895292117821e-02 -2.5428325629617558e-02 0.0000000000000000e+00  1.2928337840537988e-02 -2.8092833672195529e-02 0.0000000000000000e+00  1.5484859357543374e-02 -2.9845727162138014e-02 0.0000000000000000e+00  1.8249482783099097e-02 -3.0560920251900426e-02 0.0000000000000000e+00  2.1146870981332354e-02 -3.0122419915688103e-02 0.0000000000000000e+00  2.4082968475564518e-02 -2.8427813982300522e-02 0.0000000000000000e+00  2.6937503909504227e-02 -2.5392368414854902e-02 0.0000000000000000e+00  2.9525885083041818e-02 -2.0955739881891675e-02 0.0000000000000000e+00  3.1419715859210863e-02 -1.5105823074181129e-02 0.0000000000000000e+00  3.1186029221970619e-02 -8.0601165462252100e-03 0.0000000000000000e+00  2.4808132696758592e-02 -2.3729759739568412e-03 0.0000000000000000e+00  3.7508512849241026e-02 9.5177016777175313e-03 0.0000000000000000e+00  3.2504239961833117e-02 3.4512676805134191e-03 0.0000000000000000e+00  3.6862297297877385e-02 1.7266469651367584e-02 0.0000000000000000e+00  3.4968537143825383e-02 2.3757716537625491e-02 0.0000000000000000e+00  3.2565011707920387e-02 2.8781667487023089e-02 0.0000000000000000e+00  2.9887507439850441e-02 3.2352305745666929e-02 0.0000000000000000e+00  2.7080045156169356e-02 3.4525763812958271e-02 0.0000000000000000e+00  2.4257483411125519e-02 3.5379801539482947e-02 0.0000000000000000e+00  2.1515093545525905e-02 3.5008306744809536e-02 0.0000000000000000e+00  1.8931793524882806e-02 3.3517871750038716e-02 0.0000000000000000e+00  1.6570685999828399e-02 3.1024759381329876e-02 0.0000000000000000e+00  1.4482285623755527e-02 2.7652534016682166e-02 0.0000000000000000e+00  1.2704596053655995e-02 2.3529870697048098e-02 0.0000000000000000e+00  1.1267705024890473e-02 1.8789266390344728e-02 0.0000000000000000e+00  1.0192519763381772e-02 1.3565824442389315e-02 0.0000000000000000e+00  9.4960963527540090e-03 7.9969859114999188e-03 0.0000000000000000e+00  9.1888280573067457e-03 2.2221591912596726e-03 0.0000000000000000e+00  9.2796245581776553e-03 -3.6169231915158411e-03 0.0000000000000000e+00  9.7716494362986538e-03 -9.3760327018601718e-03 0.0000000000000000e+00  1.0666432014470203e-02 -1.4908044797106090e-02 0.0000000000000000e+00  1.1958980424054797e-02 -2.0062718874093204e-02 0.0000000000000000e+00  1.3639746872952264e-02 -2.4686869472206486e-02 0.0000000000000000e+00  1.5689769835561421e-02 -2.8624792759480423e-02 0.0000000000000000e+00  1.8080571726517211e-02 -3.1719536121359165e-02 0.0000000000000000e+00  2.0769935251540327e-02 -3.3814635610175815e-02 0.0000000000000000e+00  2.3700476367453104e-02 -3.4756803120543509e-02 0.0000000000000000e+00  2.6796366213882601e-02 -3.4399275130908145e-02 0.0000000000000000e+00  2.9960251818189648e-02 -3.2606038978198006e-02 0.0000000000000000e+00  3.3062790946722966e-02 -2.9257150716434477e-02 0.0000000000000000e+00  3.5896653791545607e-02 -2.4257542346413245e-02 0.0000000000000000e+00  3.7956711334445226e-02 -1.7567091190016391e-02 0.0000000000000000e+00  3.7509728741710234e-02 -9.4232443665023917e-03 0.0000000000000000e+00  2.9663594151165387e-02 -2.9289519648344696e-03 0.0000000000000000e+00  4.4816239659411103e-02 1.0874324176258622e-02 0.0000000000000000e+00  3.8657549084489387e-02 4.1014099855998555e-03 0.0000000000000000e+00  4.4222257165839683e-02 1.9664319707565468e-02 0.0000000000000000e+00  4.2214765681513347e-02 2.6963503355431812e-02 0.0000000000000000e+00  3.9674081189253689e-02 3.2541517720755524e-02 0.0000000000000000e+00  3.6868347633397879e-02 3.6436685902755325e-02 0.0000000000000000e+00  3.3954092227672407e-02 3.8735591744258120e-02 0.0000000000000000e+00  3.1052331386567895e-02 3.9547282893505786e-02 0.0000000000000000e+00  2.8260389114392440e-02 3.8995701678314607e-02 0.0000000000000000e+00  2.5655572837115684e-02 3.7215111653519380e-02 0.0000000000000000e+00  2.3297307455701830e-02 3.4346187828822497e-02 0.0000000000000000e+00  2.1229603908403914e-02 3.0533146180123923e-02 0.0000000000000000e+00  1.9484511346408474e-02 2.5921543056578365e-02 0.0000000000000000e+00  1.8083899590551851e-02 2.0656908523305532e-02 0.0000000000000000e+00  1.7043930957872690e-02 1.4884333417770816e-02 0.0000000000000000e+00  1.6374670869680242e-02 8.7483319762911623e-03 0.0000000000000000e+00  1.6085450650120882e-02 2.3938774903311342e-03 0.0000000000000000e+00  1.6181646787828196e-02 -4.0329636705197791e-03 0.0000000000000000e+00  1.6669878247044235e-02 -1.0383242510091949e-02 0.0000000000000000e+00  1.7552691832503457e-02 -1.6504193110067841e-02 0.0000000000000000e+00  1.8832421218169141e-02 -2.2237643276093177e-02 0.0000000000000000e+00  2.0504946707689826e-02 -2.7419267673940966e-02 0.0000000000000000e+00  2.2560816929732448e-02 -3.1878188511408084e-02 0.0000000000000000e+00  2.4979486829498049e-02 -3.5437265974257441e-02 0.0000000000000000e+00  2.7727702604672989e-02 -3.7914664346561662e-02 0.0000000000000000e+00  3.0754735735053721e-02 -3.9126163665282869e-02 0.0000000000000000e+00  3.3989354501797603e-02 -3.8889085643047112e-02 0.0000000000000000e+00  3.7334591651027753e-02 -3.7027207643888935e-02 0.0000000000000000e+00  4.0654764624536391e-02 -3.3377684253592145e-02 0.0000000000000000e+00  4.3718829459058417e-02 -2.7802341677681749e-02 0.0000000000000000e+00  4.5932246068002620e-02 -2.0224971023165152e-02 0.0000000000000000e+00  4.5200846509712914e-02 -1.0900616002602554e-02 0.0000000000000000e+00  3.5551873350639286e-02 -3.5458897170695196e-03 0.0000000000000000e+00  5.3548278216770141e-02 1.2315022147780366e-02 0.0000000000000000e+00  4.5947408406663080e-02 4.8334415165757101e-03 0.0000000000000000e+00  5.3059469349914255e-02 2.2190256405895819e-02 0.0000000000000000e+00  5.0966341854950865e-02 3.0312398623076470e-02 0.0000000000000000e+00  4.8329608215831384e-02 3.6432150674026900e-02 0.0000000000000000e+00  4.5456505566993509e-02 4.0619380761540161e-02 0.0000000000000000e+00  4.2516022984236651e-02 4.2999123226186764e-02 0.0000000000000000e+00  3.9632631417740788e-02 4.3719132500138230e-02 0.0000000000000000e+00  3.6901452121783682e-02 4.2940140789452512e-02 0.0000000000000000e+00  3.4393175281874508e-02 4.0829293721548254e-02 0.0000000000000000e+00  3.2157462714501435e-02 3.7555597870725863e-02 0.0000000000000000e+00  3.0226758849219784e-02 3.3286092557664702e-02 0.0000000000000000e+00  2.8620475558675532e-02 2.8183919826005970e-02 0.0000000000000000e+00  2.7349005134958741e-02 2.2407019367435402e-02 0.0000000000000000e+00  2.6417131747233449e-02 1.6108403687855186e-02 0.0000000000000000e+00  2.5827598081794721e-02 9.4370729960508229e-03 0.0000000000000000e+00  2.5582619826189489e-02 2.5396357508053777e-03 0.0000000000000000e+00  2.5686972900516726e-02 -4.4371268721564274e-03 0.0000000000000000e+00  