<?xml version="1.0"?>
<VTKFile type="UnstructuredGrid"  version="0.1"  >
<UnstructuredGrid>
<Piece  NumberOfPoints="825" NumberOfCells="1536">
<Points>
<DataArray  type="Float64"  NumberOfComponents="3"  format="ascii">-1.341845322572841e-22 0.5 0  0.06249999920185409 0.5000001273410241 0  0.06249981786129511 0.5625001685212223 0  -1.778544036379882e-07 0.562500019204122 0  0.1249999915538545 0.5000002736512411 0  0.1249998033144181 0.5625003013607327 0  0.1874999720684374 0.5000004351752541 0  0.1874997784665025 0.5625004353589111 0  0.249999937816729 0.5000005980890925 0  0.2499997419277851 0.5625005633198499 0  0.312499874805962 0.5000007355793197 0  0.3124996907595411 0.5625006658787883 0  0.3749997650479232 0.5000007885730596 0  0.374999618599366 0.562500722001443 0  0.43749961865329 0.5000007853820075 0  0.437499522951796 0.5625007296396419 0  0.4999994413926155 0.5000007318758942 0  0.499999408249454 0.5625006944850528 0  0.5624992513693392 0.5000006434087856 0  0.5624992822552793 0.5625006256812313 0  0.6249990700969003 0.50000053901277 0  0.6249991547353552 0.562500534284225 0  0.68749890427716 0.5000004208564319 0  0.6874990339023764 0.5625004276516913 0  0.7499987606473254 0.5000002977088503 0  0.7499989255077747 0.562500311867676 0  0.8124986431701975 0.5000001729894367 0  0.8124988342806547 0.5625001913423666 0  0.874998553076995 0.5000000452555639 0  0.8749987628146272 0.5625000677081646 0  0.9374984906673212 0.4999999152402517 0  0.9374987122996402 0.562499943292182 0  0.9999984591508855 0.4999997868584879 0  0.999998683262498 0.5624998232502464 0  1.06249846000614 0.4999996788440478 0  1.062498676373199 0.5624997130236956 0  1.124998484526164 0.4999995776084367 0  1.124998691343425 0.5624996128372061 0  1.187498535614348 0.4999994835797618 0  1.187498726347333 0.5624995249070063 0  1.249998616769742 0.4999994182158905 0  1.249998780390069 0.5624994543506118 0  1.312498715865566 0.4999993665602906 0  1.312498851740973 0.5624994013358847 0  1.374998834548087 0.4999993304308996 0  1.374998936969766 0.562499368136916 0  1.437498974054027 0.49999933118535 0  1.43749903359045 0.5624993599014042 0  1.4999991203854 0.4999993556560463 0  1.499999138722045 0.5624993763152113 0  1.562499273225227 0.4999994034031044 0  1.562499248208234 0.562499417117726 0  1.624999433150266 0.4999994894420041 0  1.624999358989811 0.5624994826432809 0  1.6874995845979 0.4999995911354327 0  1.687499467268503 0.5624995660450319 0  1.749999723983492 0.4999996976390128 0  1.749999567429578 0.5624996604088724 0  1.812499849165502 0.4999998176380253 0  1.812499655244329 0.5624997612432188 0  1.874999942596959 0.4999999222773167 0  1.874999726586113 0.5624998591685696 0  1.93749999710859 0.4999999879395355 0  1.937499775500565 0.5624999525369893 0  2 0.5 0  1.999999793206729 0.5625000995873457 0  0.06249966542699521 0.6250002093057793 0  -3.333404018772271e-07 0.6250000821248242 0  0.1249996553091475 0.6250003252221317 0  0.1874996359376504 0.6250004362941043 0  0.2499996080452264 0.6250005380125767 0  0.3124995710282548 0.6250006186922374 0  0.374999522212752 0.6250006666554222 0  0.4374994596157933 0.6250006770231613 0  0.4999993843837942 0.6250006515471886 0  0.5624993001551523 0.6250005956701794 0  0.6249992122357326 0.6250005165628735 0  0.6874991261743821 0.6250004208733082 0  0.7499990467514985 0.6250003141230706 0  0.8124989778702809 0.6250002006169184 0  0.8749989221879807 0.6250000834961313 0  0.9374988811302742 0.6249999659303224 0  0.9999988554662377 0.6249998518971206 0  1.062498845864001 0.6249997451034199 0  1.124998852324905 0.624999647946726 0  1.18749887384897 0.6249995628527404 0  1.249998909393658 0.6249994926986746 0  1.312498957507334 0.6249994395161173 0  1.37499901590449 0.6249994053962932 0  1.437499082482117 0.6249993926899188 0  1.499999155068054 0.6249994022358232 0  1.562499230955384 0.6249994336952029 0  1.624999307665376 0.6249994856102891 0  1.687499382436619 0.6249995541296259 0  1.749999451655816 0.6249996343895616 0  1.812499511764971 0.6249997219590073 0  1.874999558608829 0.6249998137626792 0  1.93749958622655 0.6249999159560079 0  1.999999592527581 0.6250000559627026 0  0.06249955104617234 0.6875002525630051 0  -4.485091667580591e-07 0.6875001555511935 0  0.124999545369922 0.687500347196329 0  0.187499533153777 0.6875004370726848 0  0.2499995147703039 0.6875005173968727 0  0.3124994901909462 0.6875005804013554 0  0.3749994583280723 0.6875006184802676 0  0.4374994180346458 0.6875006273237022 0  0.4999993693785016 0.6875006067443786 0  0.5624993139648408 0.6875005596942273 0  0.6249992546542982 0.6875004908764792 0  0.6874991949171607 0.6875004054229032 0  0.7499991381816876 0.6875003081050126 0  0.8124990874326202 0.6875002030432258 0  0.8749990449229738 0.6875000937829321 0  0.9374990121256531 0.6874999837101319 0  0.9999989899757372 0.6874998762929353 0  1.062498979068397 0.6874997747667668 0  1.124998979509396 0.6874996818652186 0  1.18749899083583 0.6874996000938309 0  1.249999012252903 0.6874995318609705 0  1.312499042631798 0.6874994792677285 0  1.374999080484661 0.6874994441753199 0  1.437499124237425 0.6874994280943231 0  1.499999172245535 0.6874994316795715 0  1.562499222692691 0.6874994545449026 0  1.62499927368698 0.6874994951521588 0  1.687499323091078 0.6874995506873017 0  1.749999368310452 0.6874996176275655 0  1.8124994063784 0.6874996927410523 0  1.874999433906244 0.68749977464453 0  1.93749944799482 0.6874998664441453 0  1.999999450669099 0.6874999738015206 0  0.0624994720710065 0.7500002958828792 0  -5.277916048318396e-07 0.7500002272862274 0  0.1249994692957526 0.7500003682955217 0  0.1874994626859989 0.7500004383105118 0  0.2499994520750889 0.7500005003711415 0  0.3124994373480777 0.7500005484077138 0  0.3749994179384805 0.7500005768811545 0  0.4374993931372077 0.7500005822377687 0  0.4999993627172827 0.750000563566778 0  0.5624993273068195 0.7500005223211148 0  0.6249992883911231 0.7500004615492193 0  0.6874992480374307 0.7500003850569281 0  0.7499992085146486 0.7500002967772417 0  0.8124991719572883 0.7500002004389599 0  0.8749991401282569 0.750000099505011 0  0.9374991143343487 0.7499999972740181 0  0.9999990954825789 0.749999896936916 0  1.062499084139411 0.7499998014799414 0  1.124999080500745 0.7499997135947349 0  1.187499084380136 0.7499996357193538 0  1.249999095279194 0.7499995700654105 0  1.312499112435684 0.7499995185642357 0  1.374999134874282 0.7499994828095191 0  1.437499161506073 0.7499994639228109 0  1.499999191164231 0.7499994623288637 0  1.562499222581954 0.7499994775923934 0  1.624999254368914 0.7499995083428775 0  1.687499284924403 0.7499995523389634 0  1.749999312357443 0.749999606821532 0  1.812499334549924 0.7499996691229726 0  1.87499934949301 0.7499997373749161 0  1.937499356398924 0.7499998105314134 0  1.999999357600249 0.7499998850790611 0  0.0624994221665685 0.8125003368442558 0  -5.778531515477415e-07 0.8125002924054309 0  0.1249994211335899 0.8125003886041134 0  0.1874994182764255 0.8125004404349434 0  0.2499994132164294 0.8125004865027016 0  0.3124994056648549 0.8125005215423 0  0.3749993951614882 0.8125005411111142 0  0.4374993811594516 0.8125005422147851 0  0.499999363326023 0.812500523690054 0  0.5624993418032234 0.8125004861343754 0  0.6249993172903525 0.8125004314994899 0  0.6874992909458217 0.8125003625687994 0  0.7499992641820822 0.8125002824998946 0  0.8124992384417797 0.8125001945234329 0  0.8749992150194615 0.8125001018047509 0  0.9374991949662176 0.8125000074088391 0  0.9999991790691221 0.8124999142782823 0  1.062499167853267 0.8124998251793881 0  1.124999161572474 0.8124997426516257 0  1.187499160211316 0.8124996689907104 0  1.249999163516189 0.8124996062323774 0  1.312499171036293 0.8124995561088659 0  1.374999182170936 0.8124995199783055 0  1.437499196220079 0.8124994987160942 0  1.499999212408839 0.8124994925821551 0  1.562499229879997 0.8124995011154585 0  1.624999247666852 0.8124995230960091 0  1.687499264654843 0.8124995566131672 0  1.74999927958136 0.8124995992654115 0  1.812499291162701 0.8124996484228936 0  1.87499929845814 0.8124997013114861 0  1.937499301538447 0.8124997543542687 0  1.999999302042422 0.8124998009284532 0  0.062499395027454 0.8750003739836476 0  -6.050742395835513e-07 0.8750003491071581 0  0.1249993949864746 0.8750004077570752 0  0.1874993944418952 0.875000443463583 0  0.2499993930242712 0.8750004754925917 0  0.3124993903561063 0.8750004991269306 0  0.3749993859740468 0.8750005105761687 0  0.4374993793701265 0.8750005072300132 0  0.4999993701473546 0.8750004878485024 0  0.5624993581842425 0.8750004525387695 0  0.624999343719931 0.8750004025304456 0  0.6874993273332121 0.8750003398490288 0  0.7499993098404943 0.875000266993605 0  0.8124992921602647 0.8750001866870302 0  0.8749992751888593 0.8750001017170277 0  0.9374992597151516 0.8750000148457341 0  0.999999246376063 0.8749999287485686 0  1.062499235635463 0.8749998459585807 0  1.124999227772778 0.8749997688180298 0  1.187499222883654 0.8749996994413247 0  1.249999220896432 0.874999639678657 0  1.31249922159945 0.8749995910674986 0  1.374999224673175 0.8749995547663317 0  1.437499229719344 0.8749995314706599 0  1.499999236275964 0.8749995213240273 0  1.562499243814909 0.8749995238490462 0  1.624999251729368 0.8749995379228213 0  1.687499259328606 0.8749995618115952 0  1.749999265875382 0.8749995932508522 0  1.812499270712926 0.8749996294932599 0  1.874999273507797 0.8749996671513762 0  1.93749927453411 0.8749997015881734 0  1.9999992747003 0.874999725668959 0  0.06249938527028556 0.9375004066456333 0  -6.148716180955864e-07 0.9375003971685352 0  0.1249993857576093 0.9375004253569593 0  0.1874993865377156 0.9375004471654972 0  0.2499993873404655 0.9375004669908644 0  0.3124993877859411 0.9375004806268757 0  0.3749993874090804 0.9375004847539165 0  0.4374993857084555 0.9375004770470411 0  0.4999993822431384 0.9375004562632426 0  0.5624993767396573 0.9375004222236497 0  0.6249993691621338 0.937500375678727 0  0.6874993597220387 0.9375003180983671 0  0.74999
[...]
<PointData  Vectors="u"> 
<DataArray  type="Float64"  Name="u"  NumberOfComponents="3" format="ascii">-4.9610913561595418e-23 8.2082941506588338e-22 0.0000000000000000e+00  1.3649707210753526e-07 -2.6713290084895680e-06 0.0000000000000000e+00  4.0764984400327721e-04 5.9755454311331183e-05 0.0000000000000000e+00  0.0000000000000000e+00 0.0000000000000000e+00 0.0000000000000000e+00  6.0138880082418286e-07 -4.7273380699138939e-06 0.0000000000000000e+00  4.4164777761941161e-04 9.1831535460542004e-05 0.0000000000000000e+00  1.3715890442727310e-06 -6.1660849036751099e-06 0.0000000000000000e+00  3.6438638720551490e-04 1.0008881299012582e-04 0.0000000000000000e+00  2.5339450665167250e-06 -6.1459107775625573e-06 0.0000000000000000e+00  2.6716261456519202e-04 9.8773372808681290e-05 0.0000000000000000e+00  4.1943428398416321e-06 -4.7581725519818701e-06 0.0000000000000000e+00  1.6705514827388876e-04 9.3687082492623978e-05 0.0000000000000000e+00  5.6327300634316766e-06 -4.0799732434169278e-06 0.0000000000000000e+00  6.9821156311666946e-05 8.6854854790505622e-05 0.0000000000000000e+00  7.0934796613635564e-06 -3.4296472028918673e-06 0.0000000000000000e+00  -2.1457391410478439e-05 7.9067502764523136e-05 0.0000000000000000e+00  8.4647464563747989e-06 -2.7132030480897340e-06 0.0000000000000000e+00  -1.0489171213057732e-04 7.0821332840847323e-05 0.0000000000000000e+00  9.7628400337641260e-06 -1.8800138918094180e-06 0.0000000000000000e+00  -1.7938338841496271e-04 6.2315285301241510e-05 0.0000000000000000e+00  1.0769844473977782e-05 -1.2063412592433397e-06 0.0000000000000000e+00  -2.4428750778686360e-04 5.3655480113280038e-05 0.0000000000000000e+00  1.1374508066832288e-05 -8.5696468560106561e-07 0.0000000000000000e+00  -2.9923239530008756e-04 4.4936692360685146e-05 0.0000000000000000e+00  1.1917519394178973e-05 -4.1408839785291075e-07 0.0000000000000000e+00  -3.4401794744980032e-04 3.6254475855002512e-05 0.0000000000000000e+00  1.2370153789805643e-05 -9.4127838018970347e-09 0.0000000000000000e+00  -3.7856950132585918e-04 2.7686318188906866e-05 0.0000000000000000e+00  1.2620675941893852e-05 2.0102524009220881e-07 0.0000000000000000e+00  -4.0289007400749109e-04 1.9267395297364354e-05 0.0000000000000000e+00  1.2850888947187092e-05 3.9973391002869598e-07 0.0000000000000000e+00  -4.1699374497413706e-04 1.0963043237856831e-05 0.0000000000000000e+00  1.2858264381576373e-05 1.7758963724060558e-07 0.0000000000000000e+00  -4.2096316151750944e-04 2.5889801869566755e-06 0.0000000000000000e+00  1.2735669143667297e-05 -6.5862749650846605e-08 0.0000000000000000e+00  -4.1487402188026629e-04 -5.9327251721115494e-06 0.0000000000000000e+00  1.2795097117178510e-05 1.6810744763105775e-07 0.0000000000000000e+00  -3.9868775808948463e-04 -1.4581777816003441e-05 0.0000000000000000e+00  1.2414246649194648e-05 -4.8113065571160371e-08 0.0000000000000000e+00  -3.7242374413264399e-04 -2.3398839352502838e-05 0.0000000000000000e+00  1.2513499315884760e-05 6.5110069261048615e-07 0.0000000000000000e+00  -3.3600419423725073e-04 -3.2409796722009825e-05 0.0000000000000000e+00  1.2440287285526725e-05 1.3360113240271762e-06 0.0000000000000000e+00  -2.8942977458948593e-04 -4.1628652956960021e-05 0.0000000000000000e+00  1.1908581292095369e-05 1.5816636775036084e-06 0.0000000000000000e+00  -2.3281612105385241e-04 -5.1089322727013765e-05 0.0000000000000000e+00  1.1735944268576134e-05 2.5941283334461564e-06 0.0000000000000000e+00  -1.6634698916803765e-04 -6.0722878933632790e-05 0.0000000000000000e+00  1.1287728906215968e-05 3.4798533638462171e-06 0.0000000000000000e+00  -9.0443731356953962e-05 -7.0486236453237472e-05 0.0000000000000000e+00  1.0273057370673672e-05 3.6811756394178488e-06 0.0000000000000000e+00  -5.8199145844906687e-06 -8.0341867990981535e-05 0.0000000000000000e+00  9.5465327828947164e-06 4.2890323767723429e-06 0.0000000000000000e+00  8.6542598329935889e-05 -8.9979320597765309e-05 0.0000000000000000e+00  8.5089309815139402e-06 4.4404974143789043e-06 0.0000000000000000e+00  1.8517360604331160e-04 -9.8718498667703145e-05 0.0000000000000000e+00  6.9054633591293927e-06 3.7531888560226180e-06 0.0000000000000000e+00  2.8773284612943357e-04 -1.0511530117238714e-04 0.0000000000000000e+00  5.5979438815934013e-06 3.4398108910318322e-06 0.0000000000000000e+00  3.8909106817121563e-04 -1.0581509004776291e-04 0.0000000000000000e+00  3.9836417352660020e-06 2.6375574681744780e-06 0.0000000000000000e+00  4.7045912155136322e-04 -9.3445277712327836e-05 0.0000000000000000e+00  1.9103434400586572e-06 1.2285512366500265e-06 0.0000000000000000e+00  4.4661372168763012e-04 -5.4051958248297533e-05 0.0000000000000000e+00  1.9264161646839154e-24 5.8477313644756125e-24 0.0000000000000000e+00  0.0000000000000000e+00 0.0000000000000000e+00 0.0000000000000000e+00  5.8298147551533912e-04 1.1233246131358566e-04 0.0000000000000000e+00  0.0000000000000000e+00 0.0000000000000000e+00 0.0000000000000000e+00  6.2261714672474586e-04 1.8674282057870237e-04 0.0000000000000000e+00  5.3741006797033129e-04 2.1876688231189681e-04 0.0000000000000000e+00  4.1197901662504789e-04 2.2751820533933198e-04 0.0000000000000000e+00  2.7265365269844817e-04 2.2355643672663343e-04 0.0000000000000000e+00  1.3081825768692897e-04 2.1229556147373658e-04 0.0000000000000000e+00  -6.9313900449431747e-06 1.9655008226860483e-04 0.0000000000000000e+00  -1.3618398621604078e-04 1.7796155882879986e-04 0.0000000000000000e+00  -2.5393091840417647e-04 1.5755718798938332e-04 0.0000000000000000e+00  -3.5814251577877704e-04 1.3603400353381906e-04 0.0000000000000000e+00  -4.4747907195774025e-04 1.1389136940734820e-04 0.0000000000000000e+00  -5.2109470960864609e-04 9.1475963409940042e-05 0.0000000000000000e+00  -5.7848748260423807e-04 6.9020009277379104e-05 0.0000000000000000e+00  -6.1938637355162299e-04 4.6648895856763004e-05 0.0000000000000000e+00  -6.4365340584443781e-04 2.4379354548487630e-05 0.0000000000000000e+00  -6.5123946008252456e-04 2.1238653774180406e-06 0.0000000000000000e+00  -6.4218204497722218e-04 -2.0251689806005498e-05 0.0000000000000000e+00  -6.1654625590412747e-04 -4.2824497068208373e-05 0.0000000000000000e+00  -5.7442643358443740e-04 -6.5612246424960754e-05 0.0000000000000000e+00  -5.1597811216372281e-04 -8.8601250660550761e-05 0.0000000000000000e+00  -4.4149095674856997e-04 -1.1168547925993335e-04 0.0000000000000000e+00  -3.5150686398567507e-04 -1.3465221285633065e-04 0.0000000000000000e+00  -2.4691061303462559e-04 -1.5715480312603069e-04 0.0000000000000000e+00  -1.2904915353780026e-04 -1.7866018198319013e-04 0.0000000000000000e+00  1.0000418388538430e-07 -1.9839150412611487e-04 0.0000000000000000e+00  1.3778308479402306e-04 -2.1513864346271453e-04 0.0000000000000000e+00  2.8027347051958417e-04 -2.2690127984496087e-04 0.0000000000000000e+00  4.2232244588943929e-04 -2.3026384975743223e-04 0.0000000000000000e+00  5.5466059867188865e-04 -2.1915158785195725e-04 0.0000000000000000e+00  6.5057364118598332e-04 -1.8287878302860057e-04 0.0000000000000000e+00  6.0043203495831806e-04 -1.0609434520052443e-04 0.0000000000000000e+00  0.0000000000000000e+00 0.0000000000000000e+00 0.0000000000000000e+00  6.6577756614420811e-04 1.5641754903059492e-04 0.0000000000000000e+00  0.0000000000000000e+00 0.0000000000000000e+00 0.0000000000000000e+00  7.2658044904536166e-04 2.7412555117785960e-04 0.0000000000000000e+00  6.3842868599389398e-04 3.3954548159056497e-04 0.0000000000000000e+00  5.0461051587531800e-04 3.6878426725901070e-04 0.0000000000000000e+00  3.5128115218965172e-04 3.7425143219776524e-04 0.0000000000000000e+00  1.9035217340090862e-04 3.6390432649457429e-04 0.0000000000000000e+00  3.0103823730372032e-05 3.4282373047492092e-04 0.0000000000000000e+00  -1.2329512525855894e-04 3.1438018817076468e-04 0.0000000000000000e+00  -2.6527059778689075e-04 2.8092321378980583e-04 0.0000000000000000e+00  -3.9251952212077172e-04 2.4414361355260222e-04 0.0000000000000000e+00  -5.0271767635815239e-04 2.0527006528588097e-04 0.0000000000000000e+00  -5.9427846168811011e-04 1.6517778237192793e-04 0.0000000000000000e+00  -6.6616908928289486e-04 1.2445929054864896e-04 0.0000000000000000e+00  -7.1775228828254854e-04 8.3477429978227909e-05 0.0000000000000000e+00  -7.4865788602595086e-04 4.2408456895067263e-05 0.0000000000000000e+00  -7.5870439163290104e-04 1.2915262195624495e-06 0.0000000000000000e+00  -7.4786612083875580e-04 -3.9906131600204387e-05 0.0000000000000000e+00  -7.1624622933915522e-04 -8.1206445308982771e-05 0.0000000000000000e+00  -6.6407292377704090e-04 -1.2254144961831303e-04 0.0000000000000000e+00  -5.9174762558120934e-04 -1.6371959770219421e-04 0.0000000000000000e+00  -4.9993708951337587e-04 -2.0437086880211502e-04 0.0000000000000000e+00  -3.8969837389240630e-04 -2.4388202640520222e-04 0.0000000000000000e+00  -2.6261729280630908e-04 -2.8133434553270607e-04 0.0000000000000000e+00  -1.2096922591456159e-04 -3.1541789384925695e-04 0.0000000000000000e+00  3.2104071932334007e-05 -3.4430667462595618e-04 0.0000000000000000e+00  1.9243385620627983e-04 -3.6544237009295916e-04 0.0000000000000000e+00  3.5467359677382628e-04 -3.7515769535124825e-04 0.0000000000000000e+00  5.1189739417406555e-04 -3.6807124837501005e-04 0.0000000000000000e+00  6.5322316012487763e-04 -3.3621296854053907e-04 0.0000000000000000e+00  7.4973472953342537e-04 -2.6827018819663913e-04 0.0000000000000000e+00  6.8289247255335554e-04 -1.5173490949692265e-04 0.0000000000000000e+00  0.0000000000000000e+00 0.0000000000000000e+00 0.0000000000000000e+00  7.3296172819712550e-04 1.9903299374972850e-04 0.0000000000000000e+00  0.0000000000000000e+00 0.0000000000000000e+00 0.0000000000000000e+00  8.0661767028138165e-04 3.5734351554880139e-04 0.0000000000000000e+00  7.1874966986574152e-04 4.5833011097169945e-04 0.0000000000000000e+00  5.8353474488406700e-04 5.1301347744680669e-04 0.0000000000000000e+00  4.2696094650300449e-04 5.3317445356634320e-04 0.0000000000000000e+00  2.6034238900740295e-04 5.2804864659339453e-04 0.0000000000000000e+00  9.1977432908196165e-05 5.0451064144950365e-04 0.0000000000000000e+00  -7.1352378353898684e-05 4.6766893599251063e-04 0.0000000000000000e+00  -2.2424571278400861e-04 4.2136347973443714e-04 0.0000000000000000e+00  -3.6257799129138973e-04 3.6849869366952724e-04 0.0000000000000000e+00  -4.8330339964052025e-04 3.1125600417470978e-04 0.0000000000000000e+00  -5.8424518941385065e-04 2.5123643534444442e-04 0.0000000000000000e+00  -6.6391446664020276e-04 1.8956760491001991e-04 0.0000000000000000e+00  -7.2134125960645961e-04 1.2699543692943466e-04 0.0000000000000000e+00  -7.5593302402510187e-04 6.3971731868288996e-05 0.0000000000000000e+00  -7.6737986982387829e-04 7.4513249981137870e-07 0.0000000000000000e+00  -7.5560253902341962e-04 -6.2539314309139037e-05 0.0000000000000000e+00  -7.2073186398879539e-04 -1.2573305281342635e-04 0.0000000000000000e+00  -6.6311544785160241e-04 -1.8857359636594554e-04 0.0000000000000000e+00  -5.8337358600131148e-04 -2.5059203531098737e-04 0.0000000000000000e+00  -4.8249388966792870e-04 -3.1102139604373321e-04 0.0000000000000000e+00  -3.6196385730551410e-04 -3.6869936936265038e-04 0.0000000000000000e+00  -2.2391981522530558e-04 -4.2196796818562470e-04 0.0000000000000000e+00  -7.1301987941326864e-05 -4.6855757012509566e-04 0.0000000000000000e+00  9.1992906777565506e-05 -5.0543872023789383e-04 0.0000000000000000e+00  2.6101327691061688e-04 -5.2861293643877421e-04 0.0000000000000000e+00  4.2973744625756153e-04 -5.3281266794911184e-04 0.0000000000000000e+00  5.9087804384177296e-04 -5.1111386181591138e-04 0.0000000000000000e+00  7.3362607570072414e-04 -4.5458163325242843e-04 0.0000000000000000e+00  8.2862395756715091e-04 -3.5246450987725932e-04 0.0000000000000000e+00  7.4947927767562658e-04 -1.9524331609168738e-04 0.0000000000000000e+00  0.0000000000000000e+00 0.0000000000000000e+00 0.0000000000000000e+00  7.9954755973448224e-04 2.4123474116159683e-04 0.0000000000000000e+00  0.0000000000000000e+00 0.0000000000000000e+00 0.0000000000000000e+00  8.8503129583360728e-04 4.3853660087634809e-04 0.0000000000000000e+00  7.9990631113237688e-04 5.7372194241293428e-04 0.0000000000000000e+00  6.6766304299028124e-04 6.5448418921818018e-04 0.0000000000000000e+00  5.1483163366770890e-04 6.9128430469360738e-04 0.0000000000000000e+00  3.5157179009562685e-04 6.9371376646239799e-04 0.0000000000000000e+00  1.8543946096391444e-04 6.6982005661238167e-04 0.0000000000000000e+00  2.2998028974646855e-05 6.2614152426224514e-04 0.0000000000000000e+00  -1.3022038384187789e-04 5.6791193434130467e-04 0.0000000000000000e+00  -2.6978570490321146e-04 4.9926747107472964e-04 0.0000000000000000e+00  -3.9229228134186477e-04 4.2341808915089327e-04 0.0000000000000000e+00  -4.9521816629887014e-04 3.4278900989349816e-04 0.0000000000000000e+00  -5.7677802626649756e-04 2.5914627843304000e-04 0.0000000000000000e+00  -6.3576897362157517e-04 1.7371869121301557e-04 0.0000000000000000e+00  -6.7143295834423136e-04 8.7322352981721450e-05 0.0000000000000000e+00  -6.8335950522993105e-04 4.9206399885865019e-07 0.0000000000000000e+00  -6.7142977559616582e-04 -8.6380143222185464e-05 0.0000000000000000e+00  -6.3579384793884615e-04 -1.7289966560863162e-04 0.0000000000000000e+00  -5.7688737624700078e-04 -2.5852405053759548e-04 0.0000000000000000e+00  -4.9548191031490764e-04 -3.4242313706982170e-04 0.0000000000000000e+00  -3.9278270257358172e-04 -4.2334751295185484e-04 0.0000000000000000e+00  -2.7055064517440011e-04 -4.9949834358879253e-04 0.0000000000000000e+00  -1.3123648234654770e-04 -5.6840006552200703e-04 0.0000000000000000e+00  2.1891565014820718e-05 -6.2677259022740183e-04 0.0000000000000000e+00  1.8465153589484839e-04 -6.7039165815755211e-04 0.0000000000000000e+00  3.5194109294680123e-04 -6.9393158092132630e-04 0.0000000000000000e+00  5.1785529946574930e-04 -6.9079694447807900e-04 0.0000000000000000e+00  6.7562351455482722e-04 -6.5299065742650082e-04 0.0000000000000000e+00  8.1525746335845285e-04 -5.7116873169742643e-04 0.0000000000000000e+00  9.0706104685439777e-04 -4.3531658124986643e-04 0.0000000000000000e+00  8.1550406858033552e-04 -2.3798720231947207e-04 0.0000000000000000e+00  0.0000000000000000e+00 0.0000000000000000e+00 0.0000000000000000e+00  8.7110116307767560e-04 2.8213638439286823e-04 0.0000000000000000e+00  0.0000000000000000e+00 0.0000000000000000e+00 0.0000000000000000e+00  9.7122206699882673e-04 5.1646496313266391e-04 0.0000000000000000e+00  8.9227338906461545e-04 6.8316783290236322e-04 0.0000000000000000e+00  7.6777097635402744e-04 7.8832874599413531e-04 0.0000000000000000e+00  6.2485089283318665e-04 8.4142510767443830e-04 0.0000000000000000e+00  4.7251372705431306e-04 8.5206115027649219e-04 0.0000000000000000e+00  3.1718992700244931e-04 8.2899623934660246e-04 0.0000000000000000e+00  1.6469325357352428e-04 7.7983258883000195e-04 0.0000000000000000e+00  2.0163102622392775e-05 7.1096642642527220e-04 0.0000000000000000e+00  -1.1211372661019855e-04 6.2764526524095217e-04 0.0000000000000000e+00  -2.2872476928110561e-04 5.3406292231990944e-04 0.0000000000000000e+00  -3.2706480090345912e-04 4.3347133693506941e-04 0.0000000000000000e+00  -4.0523851142246984e-04 3.2830543741788477e-04 0.0000000000000000e+00  -4.6193594758680098e-04 2.2032118656580571e-04 0.0000000000000000e+00  -4.9631260809783636e-04 1.1074857151520496e-04 0.0000000000000000e+00  -5.0790108136466040e-04 4.5760576655154781e-07 0.0000000000000000e+00  -4.9655716671082007e-04 -1.0986435312934187e-04 0.0000000000000000e+00  -4.6244149681252402e-04 -2.1952926872200219e-04 0.0000000000000000e+00  -4.0603120605848625e-04 -3.2766316341502978e-04 0.0000000000000000e+00  -3.2817323848037875e-04 -4.3302882291757752e-04 0.0000000000000000e+00  -2.3016285605421152e-04 -5.3385645523887815e-04 0.0000000000000000e+00  -1.1385500658627168e-04 -6.2768859449835132e-04 0.0000000000000000e+00  1.8230899956304035e-05 -7.1123912900891988e-04 0.0000000000000000e+00  1.6283347630737695e-04 -7.8026787275194912e-04 0.0000000000000000e+00  3.1591167585453666e-04 -8.2947508340899866e-04 0.0000000000000000e+00  4.7272054205748363e-04 -8.5241987004699938e-04 0.0000000000000000e+00  6.2803085480507006e-04 -8.4148483674984973e-04 0.0000000000000000e+00  7.7610771751339077e-04 -7.8794517522137134e-04 0.0000000000000000e+00  9.0807926434725774e-04 -6.8226045752970647e-04 0.0000000000000000e+00  9.9369827127011499e-04 -5.1489281522560987e-04 0.0000000000000000e+00  8.8701123858478999e-04 -2.7945572160395396e-04 0.0000000000000000e+00  0.0000000000000000e+00 0.0000000000000000e+00 0.0000000000000000e+00  9.5060380911126351e-04 3.1992544505014451e-04 0.0000000000000000e+00  0.0000000000000000e+00 0.0000000000000000e+00 0.0000000000000000e+00  1.0696922628936631e-03 5.8802615694311872e-04 0.0000000000000000e+00  1.0014968292304507e-03 7.8258149915184482e-04 0.0000000000000000e+00  8.9019118367126757e-04 9.0918486556105398e-04 0.0000000000000000e+00  7.6354584291326471e-04 9.7688205772736227e-04 0.0000000000000000e+00  6.2933736693356003e-04 9.9526898117376821e-04 0.0000000000000000e+00  4.9264401103492491e-04 9.7354526802377725e-04 0.0000000000000000e+00  3.5819735359423623e-04 9.2005995284891976e-04 0.0000000000000000e+00  2.3037469642811558e-04 8.4210401355893651e-04 0.0000000000000000e+00  1.1297218770031515e-04 7.4584186563900537e-04 0.0000000000000000e+00  9.1133104570069793e-06 6.3632535034317816e-04 0.0000000000000000e+00  -7.8748473836207547e-05 5.1756178103737880e-04 0.0000000000000000e+00  -1.4878403284011919e-04 3.9262176600417665e-04 0.0000000000000000e+00  -1.9970228344673728e-04 2.6378127425476987e-04 0.0000000000000000e+00  -2.3065506267029177e-04 1.3269227356499155e-04 0.0000000000000000e+00  -2.4116462354304143e-04 5.7653070801710902e-07 0.0000000000000000e+00  -2.3107930578191864e-04 -1.3156439083365426e-04 0.0000000000000000e+00  -2.0055522651195675e-04 -2.6272925397858026e-04 0.0000000000000000e+00  -1.5007093332944330e-04 -3.9169777659104905e-04 0.0000000000000000e+00  -8.0463531328266261e-05 -5.1681751615506491e-04 0.0000000000000000e+00  6.9983465587379335e-06 -6.3580929458271834e-04 0.0000000000000000e+00  1.1053632154003350e-04 -7.4559253816271719e-04 0.0000000000000000e+00  2.2778948660947575e-04 -8.4214162350109345e-04 0.0000000000000000e+00  3.5578248477347274e-04 -9.2037957723709073e-04 0.0000000000000000e+00  4.9095513931800598e-04 -9.7411325163894924e-04 0.0000000000000000e+00  6.2930322951639027e-04 -9.9602709051753295e-04 0.0000000000000000e+00  7.6665209343892071e-04 -9.7775724279981226e-04 0.0000000000000000e+00  8.9862604987426631e-04 -9.1008260398201457e-04 0.0000000000000000e+00  1.0176662718243772e-03 -7.8330165499991935e-04 0.0000000000000000e+00  1.0928907968597030e-03 -5.8800616625683162e-04 0.0000000000000000e+00  9.6691103088206230e-04 -3.1804971846850761e-04 0.0000000000000000e+00  0.0000000000000000e+00 0.0000000000000000e+00 0.0000000000000000e+00  1.0393097589978760e-03 3.5225272104128126e-04 0.0000000000000000e+00  0.0000000000000000e+00 0.0000000000000000e+00 0.0000000000000000e+00  1.1824128911677382e-03 6.4910533302827875e-04 0.0000000000000000e+00  1.1302575146350123e-03 8.6675313652399540e-04 0.0000000000000000e+00  1.0382178492482368e-03 1.0109698749340347e-03 0.0000000000000000e+00  9.3457306506784202e-04 1.0907901463014095e-03 0.0000000000000000e+00  8.2569617504328412e-04 1.1158604213486328e-03 0.0000000000000000e+00  7.1511730008692604e-04 1.0956467026607066e-03 0.0000000000000000e+00  6.0624898307876747e-04 1.0389805362781895e-03 0.0000000000000000e+00  5.0244895866559001e-04 9.5377959177702677e-04 0.0000000000000000e+00  4.0677049871817010e-04 8.4689807634175335e-04 0.0000000000000000e+00  3.2182289436087104e-04 7.2407231533315930e-04 0.0000000000000000e+00  2.4972139873836904e-04 5.8994152243942838e-04 0.0000000000000000e+00  1.9208228512710023e-04 4.4813090427727750e-04 0.0000000000000000e+00  1.5006997773737090e-04 3.0138649802439392e-04 0.0000000000000000e+00  1.2446262233271847e-04 1.5175404137000918e-04 0.0000000000000000e+00  1.1570487277407599e-04 7.9175244733761046e-07 0.0000000000000000e+00 