<?xml version="1.0"?>
<VTKFile type="UnstructuredGrid"  version="0.1"  >
<UnstructuredGrid>
<Piece  NumberOfPoints="759" NumberOfCells="1408">
<Points>
<DataArray  type="Float64"  NumberOfComponents="3"  format="ascii">0 0.46875 0  0.03125 0.46875 0  0.03125 0.515625 0  0 0.515625 0  0.0625 0.46875 0  0.0625 0.515625 0  0.09375 0.46875 0  0.09375 0.515625 0  0.125 0.46875 0  0.125 0.515625 0  0.15625 0.46875 0  0.15625 0.515625 0  0.1875 0.46875 0  0.1875 0.515625 0  0.21875 0.46875 0  0.21875 0.515625 0  0.25 0.46875 0  0.25 0.515625 0  0.28125 0.46875 0  0.28125 0.515625 0  0.3125 0.46875 0  0.3125 0.515625 0  0.34375 0.46875 0  0.34375 0.515625 0  0.375 0.46875 0  0.375 0.515625 0  0.40625 0.46875 0  0.40625 0.515625 0  0.4375 0.46875 0  0.4375 0.515625 0  0.46875 0.46875 0  0.46875 0.515625 0  0.5 0.46875 0  0.5 0.515625 0  0.53125 0.46875 0  0.53125 0.515625 0  0.5625 0.46875 0  0.5625 0.515625 0  0.59375 0.46875 0  0.59375 0.515625 0  0.625 0.46875 0  0.625 0.515625 0  0.65625 0.46875 0  0.65625 0.515625 0  0.6875 0.46875 0  0.6875 0.515625 0  0.71875 0.46875 0  0.71875 0.515625 0  0.75 0.46875 0  0.75 0.515625 0  0.78125 0.46875 0  0.78125 0.515625 0  0.8125 0.46875 0  0.8125 0.515625 0  0.84375 0.46875 0  0.84375 0.515625 0  0.875 0.46875 0  0.875 0.515625 0  0.90625 0.46875 0  0.90625 0.515625 0  0.9375 0.46875 0  0.9375 0.515625 0  0.96875 0.46875 0  0.96875 0.515625 0  1 0.46875 0  1 0.515625 0  0.03125 0.5625 0  0 0.5625 0  0.0625 0.5625 0  0.09375 0.5625 0  0.125 0.5625 0  0.15625 0.5625 0  0.1875 0.5625 0  0.21875 0.5625 0  0.25 0.5625 0  0.28125 0.5625 0  0.3125 0.5625 0  0.34375 0.5625 0  0.375 0.5625 0  0.40625 0.5625 0  0.4375 0.5625 0  0.46875 0.5625 0  0.5 0.5625 0  0.53125 0.5625 0  0.5625 0.5625 0  0.59375 0.5625 0  0.625 0.5625 0  0.65625 0.5625 0  0.6875 0.5625 0  0.71875 0.5625 0  0.75 0.5625 0  0.78125 0.5625 0  0.8125 0.5625 0  0.84375 0.5625 0  0.875 0.5625 0  0.90625 0.5625 0  0.9375 0.5625 0  0.96875 0.5625 0  1 0.5625 0  0.03125 0.609375 0  0 0.609375 0  0.0625 0.609375 0  0.09375 0.609375 0  0.125 0.609375 0  0.15625 0.609375 0  0.1875 0.609375 0  0.21875 0.609375 0  0.25 0.609375 0  0.28125 0.609375 0  0.3125 0.609375 0  0.34375 0.609375 0  0.375 0.609375 0  0.40625 0.609375 0  0.4375 0.609375 0  0.46875 0.609375 0  0.5 0.609375 0  0.53125 0.609375 0  0.5625 0.609375 0  0.59375 0.609375 0  0.625 0.609375 0  0.65625 0.609375 0  0.6875 0.609375 0  0.71875 0.609375 0  0.75 0.609375 0  0.78125 0.609375 0  0.8125 0.609375 0  0.84375 0.609375 0  0.875 0.609375 0  0.90625 0.609375 0  0.9375 0.609375 0  0.96875 0.609375 0  1 0.609375 0  0.03125 0.65625 0  0 0.65625 0  0.0625 0.65625 0  0.09375 0.65625 0  0.125 0.65625 0  0.15625 0.65625 0  0.1875 0.65625 0  0.21875 0.65625 0  0.25 0.65625 0  0.28125 0.65625 0  0.3125 0.65625 0  0.34375 0.65625 0  0.375 0.65625 0  0.40625 0.65625 0  0.4375 0.65625 0  0.46875 0.65625 0  0.5 0.65625 0  0.53125 0.65625 0  0.5625 0.65625 0  0.59375 0.65625 0  0.625 0.65625 0  0.65625 0.65625 0  0.6875 0.65625 0  0.71875 0.65625 0  0.75 0.65625 0  0.78125 0.65625 0  0.8125 0.65625 0  0.84375 0.65625 0  0.875 0.65625 0  0.90625 0.65625 0  0.9375 0.65625 0  0.96875 0.65625 0  1 0.65625 0  0.03125 0.703125 0  0 0.703125 0  0.0625 0.703125 0  0.09375 0.703125 0  0.125 0.703125 0  0.15625 0.703125 0  0.1875 0.703125 0  0.21875 0.703125 0  0.25 0.703125 0  0.28125 0.703125 0  0.3125 0.703125 0  0.34375 0.703125 0  0.375 0.703125 0  0.40625 0.703125 0  0.4375 0.703125 0  0.46875 0.703125 0  0.5 0.703125 0  0.53125 0.703125 0  0.5625 0.703125 0  0.59375 0.703125 0  0.625 0.703125 0  0.65625 0.703125 0  0.6875 0.703125 0  0.71875 0.703125 0  0.75 0.703125 0  0.78125 0.703125 0  0.8125 0.703125 0  0.84375 0.703125 0  0.875 0.703125 0  0.90625 0.703125 0  0.9375 0.703125 0  0.96875 0.703125 0  1 0.703125 0  0.03125 0.75 0  0 0.75 0  0.0625 0.75 0  0.09375 0.75 0  0.125 0.75 0  0.15625 0.75 0  0.1875 0.75 0  0.21875 0.75 0  0.25 0.75 0  0.28125 0.75 0  0.3125 0.75 0  0.34375 0.75 0  0.375 0.75 0  0.40625 0.75 0  0.4375 0.75 0  0.46875 0.75 0  0.5 0.75 0  0.53125 0.75 0  0.5625 0.75 0  0.59375 0.75 0  0.625 0.75 0  0.65625 0.75 0  0.6875 0.75 0  0.71875 0.75 0  0.75 0.75 0  0.78125 0.75 0  0.8125 0.75 0  0.84375 0.75 0  0.875 0.75 0  0.90625 0.75 0  0.9375 0.75 0  0.96875 0.75 0  1 0.75 0  0.03125 0.796875 0  0 0.796875 0  0.0625 0.796875 0  0.09375 0.796875 0  0.125 0.796875 0  0.15625 0.796875 0  0.1875 0.796875 0  0.21875 0.796875 0  0.25 0.796875 0  0.28125 0.796875 0  0.3125 0.796875 0  0.34375 0.796875 0  0.375 0.796875 0  0.40625 0.796875 0  0.4375 0.796875 0  0.46875 0.796875 0  0.5 0.796875 0  0.53125 0.796875 0  0.5625 0.796875 0  0.59375 0.796875 0  0.625 0.796875 0  0.65625 0.796875 0  0.6875 0.796875 0  0.71875 0.796875 0  0.75 0.796875 0  0.78125 0.796875 0  0.8125 0.796875 0  0.84375 0.796875 0  0.875 0.796875 0  0.90625 0.796875 0  0.9375 0.796875 0  0.96875 0.796875 0  1 0.796875 0  0.03125 0.84375 0  0 0.84375 0  0.0625 0.84375 0  0.09375 0.84375 0  0.125 0.84375 0  0.15625 0.84375 0  0.1875 0.84375 0  0.21875 0.84375 0  0.25 0.84375 0  0.28125 0.84375 0  0.3125 0.84375 0  0.34375 0.84375 0  0.375 0.84375 0  0.40625 0.84375 0  0.4375 0.84375 0  0.46875 0.84375 0  0.5 0.84375 0  0.53125 0.84375 0  0.5625 0.84375 0  0.59375 0.84375 0  0.625 0.84375 0  0.65625 0.84375 0  0.6875 0.84375 0  0.71875 0.84375 0  0.75 0.84375 0  0.78125 0.84375 0  0.8125 0.84375 0  0.84375 0.84375 0  0.875 0.84375 0  0.90625 0.84375 0  0.9375 0.84375 0  0.96875 0.84375 0  1 0.84375 0  0.03125 0.890625 0  0 0.890625 0  0.0625 0.890625 0  0.09375 0.890625 0  0.125 0.890625 0  0.15625 0.890625 0  0.1875 0.890625 0  0.21875 0.890625 0  0.25 0.890625 0  0.28125 0.890625 0  0.3125 0.890625 0  0.34375 0.890625 0  0.375 0.890625 0  0.40625 0.890625 0  0.4375 0.890625 0  0.46875 0.890625 0  0.5 0.890625 0  0.53125 0.890625 0  0.5625 0.890625 0  0.59375 0.890625 0  0.625 0.890625 0  0.65625 0.890625 0  0.6875 0.890625 0  0.71875 0.890625 0  0.75 0.890625 0  0.78125 0.890625 0  0.8125 0.890625 0  0.84375 0.890625 0  0.875 0.890625 0  0.90625 0.890625 0  0.9375 0.890625 0  0.96875 0.890625 0  1 0.890625 0  0.03125 0.9375 0  0 0.9375 0  0.0625 0.9375 0  0.09375 0.9375 0  0.125 0.9375 0  0.15625 0.9375 0  0.1875 0.9375 0  0.21875 0.9375 0  0.25 0.9375 0  0.28125 0.9375 0  0.3125 0.9375 0  0.34375 0.9375 0  0.375 0.9375 0  0.40625 0.9375 0  0.4375 0.9375 0  0.46875 0.9375 0  0.5 0.9375 0  0.53125 0.9375 0  0.5625 0.9375 0  0.59375 0.9375 0  0.625 0.9375 0  0.65625 0.9375 0  0.6875 0.9375 0  0.71875 0.9375 0  0.75 0.9375 0  0.78125 0.9375 0  0.8125 0.9375 0  0.84375 0.9375 0  0.875 0.9375 0  0.90625 0.9375 0  0.9375 0.9375 0  0.96875 0.9375 0  1 0.9375 0  0.03125 0.984375 0  0 0.984375 0  0.0625 0.984375 0  0.09375 0.984375 0  0.125 0.984375 0  0.15625 0.984375 0  0.1875 0.984375 0  0.21875 0.984375 0  0.25 0.984375 0  0.28125 0.984375 0  0.3125 0.984375 0  0.34375 0.984375 0  0.375 0.984375 0  0.40625 0.984375 0  0.4375 0.984375 0  0.46875 0.984375 0  0.5 0.984375 0  0.53125 0.984375 0  0.5625 0.984375 0  0.59375 0.984375 0  0.625 0.984375 0  0.65625 0.984375 0  0.6875 0.984375 0  0.71875 0.984375 0  0.75 0.984375 0  0.78125 0.984375 0  0.8125 0.984375 0  0.84375 0.984375 0  0.875 0.984375 0  0.90625 0.984375 0  0.9375 0.984375 0  0.96875 0.984375 0  1 0.984375 0  0.03125 1.03125 0  0 1.03125 0  0.0625 1.03125 0  0.09375 1.03125 0  0.125 1.03125 0  0.15625 1.03125 0  0.1875 1.03125 0  0.21875 1.03125 0  0.25 1.03125 0  0.28125 1.03125 0  0.3125 1.03125 0  0.34375 1.03125 0  0.375 1.03125 0  0.40625 1.03125 0  0.4375 1.03125 0  0.46875 1.03125 0  0.5 1.03125 0  0.53125 1.03125 0  0.5625 1.03125 0  0.59375 1.03125 0  0.625 1.03125 0  0.65625 1.03125 0  0.6875 1.03125 0  0.71875 1.03125 0  0.75 1.03125 0  0.78125 1.03125 0  0.8125 1.03125 0  0.84375 1.03125 0  0.875 1.03125 0  0.90625 1.03125 0  0.9375 1.03125 0  0.96875 1.03125 0  1 1.03125 0  0.03125 1.078125 0  0 1.078125 0  0.0625 1.078125 0  0.09375 1.078125 0  0.125 1.078125 0  0.15625 1.078125 0  0.1875 1.078125 0  0.21875 1.078125 0  0.25 1.078125 0  0.28125 1.078125 0  0.3125 1.078125 0  0.34375 1.078125 0  0.375 1.078125 0  0.40625 1.078125 0  0.4375 1.078125 0  0.46875 1.078125 0  0.5 1.078125 0  0.53125 1.078125 0  0.5625 1.078125 0  0.59375 1.078125 0  0.625 1.078125 0  0.65625 1.078125 0  0.6875 1.078125 0  0.71875 1.078125 0  0.75 1.078125 0  0.78125 1.078125 0  0.8125 1.078125 0  0.84375 1.078125 0  0.875 1.078125 0  0.90625 1.078125 0  0.9375 1.078125 0  0.96875 1.078125 0  1 1.078125 0  0.03125 1.125 0  0 1.125 0  0.0625 1.125 0  0.09375 1.125 0  0.125 1.125 0  0.15625 1.125 0  0.1875 1.125 0  0.21875 1.125 0  0.25 1.125 0  0.28125 1.125 0  0.3125 1.125 0  0.34375 1.125 0  0.375 1.125 0  0.40625 1.125 0  0.4375 1.125 0  0.46875 1.125 0  0.5 1.125 0  0.53125 1.125 0  0.5625 1.125 0  0.59375 1.125 0  0.625 1.125 0  0.65625 1.125 0  0.6875 1.125 0  0.71875 1.125 0  0.75 1.125 0  0.78125 1.125 0  0.8125 1.125 0  0.84375 1.125 0  0.875 1.125 0  0.90625 1.125 0  0.9375 1.125 0  0.96875 1.125 0  1 1.125 0  0.03125 1.171875 0  0 1.171875 0  0.0625 1.171875 0  0.09375 1.171875 0  0.125 1.171875 0  0.15625 1.171875 0  0.1875 1.171875 0  0.21875 1.171875 0  0.25 1.171875 0  0.28125 1.171875 0  0.3125 1.171875 0  0.34375 1.171875 0  0.375 1.171875 0  0.40625 1.171875 0  0.4375 1.171875 0  0.46875 1.171875 0  0.5 1.171875 0  0.53125 1.171875 0  0.5625 1.171875 0  0.59375 1.171875 0  0.625 1.171875 0  0.65625 1.171875 0  0.6875 1.171875 0  0.71875 1.171875 0  0.75 1.171875 0  0.78125 1.171875 0  0.8125 1.171875 0  0.84375 1.171875 0  0.875 1.171875 0  0.90625 1.171875 0  0.9375 1.171875 0  0.96875 1.171875 0  1 1.171875 0  0.03125 1.21875 0  0 1.21875 0  0.0625 1.21875 0  0.09375 1.21875 0  0.125 1.21875 0  0.15625 1.21875 0  0.1875 1.21875 0  0.21875 1.21875 0  0.25 1.21875 0  0.28125 1.21875 0  0.3125 1.21875 0  0.34375 1.21875 0  0.375 1.21875 0  0.40625 1.21875 0  0.4375 1.21875 0  0.46875 1.21875 0  0.5 1.21875 0  0.53125 1.21875 0  0.5
[...]
<PointData  Vectors="u"> 
<DataArray  type="Float64"  Name="u"  NumberOfComponents="3" format="ascii">1.4116535828080378e-02 7.1453386934000043e-04 0.0000000000000000e+00  1.6277754003316356e-02 3.9892921536674895e-03 0.0000000000000000e+00  1.7909316878341658e-02 4.2713861964689837e-03 0.0000000000000000e+00  1.5337609838864374e-02 9.3240853076011980e-04 0.0000000000000000e+00  1.5726636833300750e-02 7.2648075295322677e-03 0.0000000000000000e+00  1.7523921556923706e-02 7.8602967174078962e-03 0.0000000000000000e+00  1.4635652112837546e-02 1.0194279989652756e-02 0.0000000000000000e+00  1.6219119644421690e-02 1.1032183889563415e-02 0.0000000000000000e+00  1.3206508625128796e-02 1.2658277605916115e-02 0.0000000000000000e+00  1.4559061517439190e-02 1.3675583520215586e-02 0.0000000000000000e+00  1.1547201125936055e-02 1.4591100170184543e-02 0.0000000000000000e+00  1.2697021744863377e-02 1.5728939819144146e-02 0.0000000000000000e+00  9.7474186784414114e-03 1.5948472189054232e-02 0.0000000000000000e+00  1.0722102270367654e-02 1.7153901600604156e-02 0.0000000000000000e+00  7.8854515177793939e-03 1.6706351334416242e-02 0.0000000000000000e+00  8.7093002509763661e-03 1.7932505400612666e-02 0.0000000000000000e+00  6.0302644328234112e-03 1.6860642022164918e-02 0.0000000000000000e+00  6.7245892995988566e-03 1.8066239389129223e-02 0.0000000000000000e+00  4.2424662882998600e-03 1.6425978774379370e-02 0.0000000000000000e+00  4.8258406412819491e-03 1.7574914369964785e-02 0.0000000000000000e+00  2.5749094764833456e-03 1.5434100954852868e-02 0.0000000000000000e+00  3.0636368381555734e-03 1.6495028705565781e-02 0.0000000000000000e+00  1.0731958629381930e-03 1.3931902635548530e-02 0.0000000000000000e+00  1.4814762286058725e-03 1.4877961576451269e-02 0.0000000000000000e+00  -2.2395649014476156e-04 1.1979454773747537e-02 0.0000000000000000e+00  1.1633115185091736e-04 1.2787969559998030e-02 0.0000000000000000e+00  -1.2843272066451682e-03 9.6479266343749270e-03 0.0000000000000000e+00  -1.0011931462649247e-03 1.0300238582156441e-02 0.0000000000000000e+00  -2.0819713086320268e-03 7.0175956064556563e-03 0.0000000000000000e+00  -1.8465238845395600e-03 7.4988758131705390e-03 0.0000000000000000e+00  -2.5970144790037866e-03 4.1758230310606111e-03 0.0000000000000000e+00  -2.4010830664467448e-03 4.4750124895513001e-03 0.0000000000000000e+00  -2.8155315762806261e-03 1.2151145259456325e-03 0.0000000000000000e+00  -2.6520736282433094e-03 1.3248667555839507e-03 0.0000000000000000e+00  -2.7294831366772633e-03 -1.7688539372703032e-03 0.0000000000000000e+00  -2.5925828526026829e-03 -1.8521096592265826e-03 0.0000000000000000e+00  -2.3367750988024022e-03 -4.6791832254268516e-03 0.0000000000000000e+00  -2.2216137574153768e-03 -4.9551564833759665e-03 0.0000000000000000e+00  -1.6413504660743232e-03 -7.4197792220539972e-03 0.0000000000000000e+00  -1.5443227584084965e-03 -7.8841261662537347e-03 0.0000000000000000e+00  -6.5336187478009394e-04 -9.8974232692089006e-03 0.0000000000000000e+00  -5.7220628763028950e-04 -1.0541530275981805e-02 0.0000000000000000e+00  6.1059681814595607e-04 -1.2023977866352106e-02 0.0000000000000000e+00  6.7646835705062003e-04 -1.2834657177120200e-02 0.0000000000000000e+00  2.1271896712106867e-03 -1.3718678823048057e-02 0.0000000000000000e+00  2.1763153471420879e-03 -1.4677859349889025e-02 0.0000000000000000e+00  3.8660887087499504e-03 -1.4910588646107793e-02 0.0000000000000000e+00  3.8943386652381239e-03 -1.5994943050191016e-02 0.0000000000000000e+00  5.7896809223970391e-03 -1.5541125185715316e-02 0.0000000000000000e+00  5.7895637683362498e-03 -1.6721717828117072e-02 0.0000000000000000e+00  7.8528426159933367e-03 -1.5566699159890783e-02 0.0000000000000000e+00  7.8125275028031599e-03 -1.6808591844984823e-02 0.0000000000000000e+00  1.0002555451063596e-02 -1.4961347068761744e-02 0.0000000000000000e+00  9.9048895333016113e-03 -1.6223215023021893e-02 0.0000000000000000e+00  1.2176674355413513e-02 -1.3719373103777823e-02 0.0000000000000000e+00  1.1998264787573891e-02 -1.4953021317838905e-02 0.0000000000000000e+00  1.4298314996326555e-02 -1.1858057497314943e-02 0.0000000000000000e+00  1.4010227476603340e-02 -1.3007726892550923e-02 0.0000000000000000e+00  1.6249593914922516e-02 -9.4214686176145642e-03 0.0000000000000000e+00  1.5825296423307465e-02 -1.0422359861946125e-02 0.0000000000000000e+00  1.7752392291882677e-02 -6.4920613256930337e-03 0.0000000000000000e+00  1.7208559000154534e-02 -7.2658537189787820e-03 0.0000000000000000e+00  1.7927396121069732e-02 -3.2625000170440530e-03 0.0000000000000000e+00  1.7459723387411412e-02 -3.6938975938176659e-03 0.0000000000000000e+00  1.5189802220508754e-02 -3.0009061109071783e-04 0.0000000000000000e+00  1.4590288484708155e-02 -4.1159092613355682e-04 0.0000000000000000e+00  1.9809919098787234e-02 5.0660797358706147e-03 0.0000000000000000e+00  1.7170060042649447e-02 1.3983305158698904e-03 0.0000000000000000e+00  1.9304038528330642e-02 9.3116709704848984e-03 0.0000000000000000e+00  1.7925899125133996e-02 1.3010800805187144e-02 0.0000000000000000e+00  1.6157788608656919e-02 1.6036567543507758e-02 0.0000000000000000e+00  1.4169138297654569e-02 1.8340459511942350e-02 0.0000000000000000e+00  1.2062322300996660e-02 1.9898076108706839e-02 0.0000000000000000e+00  9.9186266739661327e-03 2.0704729546994542e-02 0.0000000000000000e+00  7.8081916816060415e-03 2.0774520956146333e-02 0.0000000000000000e+00  5.7925270393090209e-03 2.0139038627973716e-02 0.0000000000000000e+00  3.9246807587891624e-03 1.8845845315195557e-02 0.0000000000000000e+00  2.2502310304503290e-03 1.6956618580529798e-02 0.0000000000000000e+00  8.0734478717351906e-04 1.4545343164610853e-02 0.0000000000000000e+00  -3.7232947882216521e-04 1.1696335469489359e-02 0.0000000000000000e+00  -1.2637309543091851e-03 8.5024769633659583e-03 0.0000000000000000e+00  -1.8477313814279030e-03 5.0633330791779643e-03 0.0000000000000000e+00  -2.1112480537892435e-03 1.4834917887377138e-03 0.0000000000000000e+00  -2.0469487541295950e-03 -2.1292262331205980e-03 0.0000000000000000e+00  -1.6535843829218429e-03 -5.6654125768624579e-03 0.0000000000000000e+00  -9.3597013863621834e-04 -9.0159012992454754e-03 0.0000000000000000e+00  9.4463204396573336e-05 -1.2073567724563203e-02 0.0000000000000000e+00  1.4193827064320342e-03 -1.4735363819242108e-02 0.0000000000000000e+00  3.0127668271788042e-03 -1.6904418644267401e-02 0.0000000000000000e+00  4.8405205162539156e-03 -1.8492390775814431e-02 0.0000000000000000e+00  6.8596013533962644e-03 -1.9421898879073057e-02 0.0000000000000000e+00  9.0176099444365960e-03 -1.9629125762192414e-02 0.0000000000000000e+00  1.1251915830693036e-02 -1.9066375834517525e-02 0.0000000000000000e+00  1.3488581638325411e-02 -1.7704591214663459e-02 0.0000000000000000e+00  1.5637600845922028e-02 -1.5535689078562806e-02 0.0000000000000000e+00  1.7571878079044971e-02 -1.2575513973616930e-02 0.0000000000000000e+00  1.9027990083409461e-02 -8.8736370673180992e-03 0.0000000000000000e+00  1.9188031441795924e-02 -4.5896801047424461e-03 0.0000000000000000e+00  1.5681112342924599e-02 -8.5876809532679994e-04 0.0000000000000000e+00  2.2685092063391438e-02 6.0280275156237772e-03 0.0000000000000000e+00  1.9756352897977680e-02 1.8639500548307761e-03 0.0000000000000000e+00  2.2101034720931504e-02 1.1038580267142287e-02 0.0000000000000000e+00  2.0603543338030595e-02 1.5355158202049999e-02 0.0000000000000000e+00  1.8691759212406858e-02 1.8829487085664287e-02 0.0000000000000000e+00  1.6542695075785620e-02 2.1425504496732785e-02 0.0000000000000000e+00  1.4266316822866443e-02 2.3134954414212424e-02 0.0000000000000000e+00  1.1951822722866800e-02 2.3969393390889143e-02 0.0000000000000000e+00  9.6764696384017412e-03 2.3958418897440284e-02 0.0000000000000000e+00  7.5065929934328224e-03 2.3148252325733559e-02 0.0000000000000000e+00  5.4995372237495090e-03 2.1600034516903045e-02 0.0000000000000000e+00  3.7032788201239028e-03 1.9388083085622846e-02 0.0000000000000000e+00  2.1582193392452715e-03 1.6597973395250081e-02 0.0000000000000000e+00  8.9685947824735390e-04 1.3324843062272855e-02 0.0000000000000000e+00  -5.4668264042450487e-05 9.6715765082485659e-03 0.0000000000000000e+00  -6.7697838304447522e-04 5.7473359622170934e-03 0.0000000000000000e+00  -9.5626841476537767e-04 1.6659180172804912e-03 0.0000000000000000e+00  -8.8491437582501639e-04 -2.4555516122965965e-03 0.0000000000000000e+00  -4.6088368639242113e-04 -6.4981871676286435e-03 0.0000000000000000e+00  3.1144338032207842e-04 -1.0342694881561556e-02 0.0000000000000000e+00  1.4213439487775000e-03 -1.3871071475563251e-02 0.0000000000000000e+00  2.8505754957211405e-03 -1.6968246897735066e-02 0.0000000000000000e+00  4.5730521930586942e-03 -1.9524106174566170e-02 0.0000000000000000e+00  6.5534867443756677e-03 -2.1435585756102365e-02 0.0000000000000000e+00  8.7469133144300586e-03 -2.2609098466775775e-02 0.0000000000000000e+00  1.1097308081237463e-02 -2.2963034499999722e-02 0.0000000000000000e+00  1.3537136276093525e-02 -2.2430411709360835e-02 0.0000000000000000e+00  1.5985322680693199e-02 -2.0961442255005461e-02 0.0000000000000000e+00  1.8342224836480157e-02 -1.8526135942755095e-02 0.0000000000000000e+00  2.0463876979537179e-02 -1.5117925897321529e-02 0.0000000000000000e+00  2.2041803578134716e-02 -1.0767293435434658e-02 0.0000000000000000e+00  2.2093365379193281e-02 -5.6510655457393316e-03 0.0000000000000000e+00  1.7841338347604534e-02 -1.3598281851084225e-03 0.0000000000000000e+00  2.6554625477063144e-02 7.0925881427230221e-03 0.0000000000000000e+00  2.3140826926047801e-02 2.3477516953308054e-03 0.0000000000000000e+00  2.5920423439579818e-02 1.2945353349736592e-02 0.0000000000000000e+00  2.4291585918526995e-02 1.7936577932494136e-02 0.0000000000000000e+00  2.2217201445734833e-02 2.1897541597922197e-02 0.0000000000000000e+00  1.9887433286793564e-02 2.4806536140611714e-02 0.0000000000000000e+00  1.7422536202062563e-02 2.6673603345470000e-02 0.0000000000000000e+00  1.4921060176533394e-02 2.7528992117277200e-02 0.0000000000000000e+00  1.2466769866524095e-02 2.7420389922216022e-02 0.0000000000000000e+00  1.0132139477442299e-02 2.6411083476949457e-02 0.0000000000000000e+00  7.9776637236910267e-03 2.4578015390470467e-02 0.0000000000000000e+00  6.0545162093761928e-03 2.2009892607748965e-02 0.0000000000000000e+00  4.4037576322780375e-03 1.8805343322942501e-02 0.0000000000000000e+00  3.0592303076261533e-03 1.5071186658119377e-02 0.0000000000000000e+00  2.0465762258606644e-03 1.0920985852238982e-02 0.0000000000000000e+00  1.3858568391196238e-03 6.4736092956239159e-03 0.0000000000000000e+00  1.0904135818601338e-03 1.8521964391107417e-03 0.0000000000000000e+00  1.1687923938057878e-03 -2.8170751661267110e-03 0.0000000000000000e+00  1.6232375988907755e-03 -7.4058242101214169e-03 0.0000000000000000e+00  2.4507974767243720e-03 -1.1784711887470330e-02 0.0000000000000000e+00  3.6414813946836887e-03 -1.5824443535498910e-02 0.0000000000000000e+00  5.1784722866846733e-03 -1.9397298947169486e-02 0.0000000000000000e+00  7.0359652129518748e-03 -2.2378645870611533e-02 0.0000000000000000e+00  9.1788817402301340e-03 -2.4648973072736335e-02 0.0000000000000000e+00  1.1560643959445185e-02 -2.6096089521527078e-02 0.0000000000000000e+00  1.4122669961058170e-02 -2.6617710034658154e-02 0.0000000000000000e+00  1.6792415997633189e-02 -2.6124212341454144e-02 0.0000000000000000e+00  1.9482002011934004e-02 -2.4541563577976742e-02 0.0000000000000000e+00  2.2081108840399287e-02 -2.1814519618246871e-02 0.0000000000000000e+00  2.4426608421164592e-02 -1.7911565465528072e-02 0.0000000000000000e+00  2.6155117552040832e-02 -1.2843348504246333e-02 0.0000000000000000e+00  2.6081555283789481e-02 -6.8067424242233771e-03 0.0000000000000000e+00  2.0886909640870196e-02 -1.8581557726620504e-03 0.0000000000000000e+00  3.1464816971149390e-02 8.2556667508952002e-03 0.0000000000000000e+00  2.7365634091671295e-02 2.8712507249222456e-03 0.0000000000000000e+00  3.0808228777955117e-02 1.5022497698115478e-02 0.0000000000000000e+00  2.9044154321343035e-02 2.0740431767982778e-02 0.0000000000000000e+00  2.6801249820740346e-02 2.5220514871680162e-02 0.0000000000000000e+00  2.4289032481870535e-02 2.8457272170338478e-02 0.0000000000000000e+00  2.1639748502365753e-02 3.0481906724728162e-02 0.0000000000000000e+00  1.8959998061948407e-02 3.1346370775733261e-02 0.0000000000000000e+00  1.6340840529770636e-02 3.1119560395186992e-02 0.0000000000000000e+00  1.3858303138791363e-02 2.9884632954764255e-02 0.0000000000000000e+00  1.1576420990557983e-02 2.7736824631062827e-02 0.0000000000000000e+00  9.5463236436781757e-03 2.4781161332230486e-02 0.0000000000000000e+00  7.8101089451751036e-03 2.1130690573128885e-02 0.0000000000000000e+00  6.3996249521834012e-03 1.6904756122706859e-02 0.0000000000000000e+00  5.3406502758896746e-03 1.2227801736504883e-02 0.0000000000000000e+00  4.6510378112609970e-03 7.2283442661982547e-03 0.0000000000000000e+00  4.3447283058500709e-03 2.0382311573218363e-03 0.0000000000000000e+00  4.4291961567676612e-03 -3.2078303821156512e-03 0.0000000000000000e+00  4.9084967073424026e-03 -8.3728460432855069e-03 0.0000000000000000e+00  5.7802654488049434e-03 -1.3317835286389771e-02 0.0000000000000000e+00  7.0374397247344646e-03 -1.7902607396830365e-02 0.0000000000000000e+00  8.6648987520221588e-03 -2.1986430091995312e-02 0.0000000000000000e+00  1.0639784099331449e-02 -2.5429372285545915e-02 0.0000000000000000e+00  1.2928212370709303e-02 -2.8093818955030905e-02 0.0000000000000000e+00  1.5484721105153632e-02 -2.9846639097559264e-02 0.0000000000000000e+00  1.8249333282558108e-02 -3.0561747432350978e-02 0.0000000000000000e+00  2.1146711768432438e-02 -3.0123151682434093e-02 0.0000000000000000e+00  2.4082801049870154e-02 -2.8428440607442214e-02 0.0000000000000000e+00  2.6937329716338450e-02 -2.5392881280241090e-02 0.0000000000000000e+00  2.9525705621392583e-02 -2.0956131651084602e-02 0.0000000000000000e+00  3.1419533496087663e-02 -1.5106087851809166e-02 0.0000000000000000e+00  3.1185851645835337e-02 -8.0602499926530468e-03 0.0000000000000000e+00  2.4807991652273889e-02 -2.3729748189360894e-03 0.0000000000000000e+00  3.7508773346371427e-02 9.5176222937646930e-03 0.0000000000000000e+00  3.2504455811438078e-02 3.4512783124020499e-03 0.0000000000000000e+00  3.6862560608858411e-02 1.7266306787127927e-02 0.0000000000000000e+00  3.4968794005498433e-02 2.3757467956096019e-02 0.0000000000000000e+00  3.2565258807049156e-02 2.8781331439991779e-02 0.0000000000000000e+00  2.9887742589528993e-02 3.2351881614172164e-02 0.0000000000000000e+00  2.7080266464672646e-02 3.4525252140624081e-02 0.0000000000000000e+00  2.4257689151816791e-02 3.5379204011322961e-02 0.0000000000000000e+00  2.1515282146508892e-02 3.5007626162213513e-02 0.0000000000000000e+00  1.8931963580089209e-02 3.3517112005605094e-02 0.0000000000000000e+00  1.6570836282892829e-02 3.1023925431373681e-02 0.0000000000000000e+00  1.4482415101723756e-02 2.7651631848882106e-02 0.0000000000000000e+00  1.2704703899489734e-02 2.3528907290843584e-02 0.0000000000000000e+00  1.1267790629430497e-02 1.8788249668404186e-02 0.0000000000000000e+00  1.0192582744202842e-02 1.3564763211664648e-02 0.0000000000000000e+00  9.4961365616451424e-03 7.9958897929863111e-03 0.0000000000000000e+00  9.1888455838655316e-03 2.2210385379318226e-03 0.0000000000000000e+00  9.2796197310076930e-03 -3.6180573890074370e-03 0.0000000000000000e+00  9.7716228188293695e-03 -9.3771689216098405e-03 0.0000000000000000e+00  1.0666384397416420e-02 -1.4909171104588269e-02 0.0000000000000000e+00  1.1958912811948764e-02 -2.0063823052226207e-02 0.0000000000000000e+00  1.3639660466230512e-02 -2.4687939162850767e-02 0.0000000000000000e+00  1.5689666006363765e-02 -2.8625815615206052e-02 0.0000000000000000e+00  1.8080451989485845e-02 -3.1720499966683621e-02 0.0000000000000000e+00  2.0769801229134330e-02 -3.3815528610800234e-02 0.0000000000000000e+00  2.3700329750834696e-02 -3.4757613958973990e-02 0.0000000000000000e+00  2.6796208719275683e-02 -3.4399993185989998e-02 0.0000000000000000e+00  2.9960085143309619e-02 -3.2606654505840611e-02 0.0000000000000000e+00  3.3062616744814532e-02 -2.9257655028186617e-02 0.0000000000000000e+00  3.5896473766867422e-02 -2.4257927981820884e-02 0.0000000000000000e+00  3.7956528026186445e-02 -1.7567352078078094e-02 0.0000000000000000e+00  3.7509549881565664e-02 -9.4233759622738660e-03 0.0000000000000000e+00  2.9663451289979607e-02 -2.9289510866878491e-03 0.0000000000000000e+00  4.4816523858591265e-02 1.0874248592366751e-02 0.0000000000000000e+00  3.8657783404763342e-02 4.1014206475770004e-03 0.0000000000000000e+00  4.4222545465273967e-02 1.9664164502488007e-02 0.0000000000000000e+00  4.2215048156680569e-02 2.6963266122511161e-02 0.0000000000000000e+00  3.9674354464040204e-02 3.2541196504772732e-02 0.0000000000000000e+00  3.6868609493202344e-02 3.6436279865771623e-02 0.0000000000000000e+00  3.3954340702193539e-02 3.8735101200034476e-02 0.0000000000000000e+00  3.1052564618557026e-02 3.9546709283973434e-02 0.0000000000000000e+00  2.8260605360349040e-02 3.8995047545921514e-02 0.0000000000000000e+00  2.5655770489822472e-02 3.7214380613957175e-02 0.0000000000000000e+00  2.3297485068486296e-02 3.4345384542185095e-02 0.0000000000000000e+00  2.1229760217412935e-02 3.0532276318047738e-02 0.0000000000000000e+00  1.9484645291540325e-02 2.5920613263219663e-02 0.0000000000000000e+00  1.8084010333880816e-02 2.0655926368260479e-02 0.0000000000000000e+00  1.7044017899936776e-02 1.4883307339739331e-02 0.0000000000000000e+00  1.6374733662001990e-02 8.7472712164441621e-03 0.0000000000000000e+00  1.6085489205588124e-02 2.3927920149151550e-03 0.0000000000000000e+00  1.6181661285685253e-02 -4.0340632588126831e-03 0.0000000000000000e+00  1.6669869134466730e-02 -1.0384345072039147e-02 0.0000000000000000e+00  1.7552659819557653e-02 -1.6505287081127407e-02 0.0000000000000000e+00  1.8832367268201491e-02 -2.2238716788857381e-02 0.0000000000000000e+00  2.0504872020237184e-02 -2.7420308691353895e-02 0.0000000000000000e+00  2.2560722917676728e-02 -3.1879184970642745e-02 0.0000000000000000e+00  2.4979375088513195e-02 -3.5438205940208779e-02 0.0000000000000000e+00  2.7727574876818484e-02 -3.7915536174301961e-02 0.0000000000000000e+00  3.0754593865958579e-02 -3.9126956169804425e-02 0.0000000000000000e+00  3.3989200392353591e-02 -3.8889788274395265e-02 0.0000000000000000e+00  3.7334427207623457e-02 -3.7027810664868308e-02 0.0000000000000000e+00  4.0654591725206003e-02 -3.3378178916724045e-02 0.0000000000000000e+00  4.3718650035937695e-02 -2.7802720397162958e-02 0.0000000000000000e+00  4.5932062855676456e-02 -2.0225227538572962e-02 0.0000000000000000e+00  4.5200667274551375e-02 -1.0900745541042776e-02 0.0000000000000000e+00  3.5551729278783806e-02 -3.5458892005685257e-03 0.0000000000000000e+00  5.3548586331691322e-02 1.2314949874107254e-02 0.0000000000000000e+00  4.5947661137562740e-02 4.8334518883045713e-03 0.0000000000000000e+00  5.3059783005855989e-02 2.2190108045709412e-02 0.0000000000000000e+00  5.0966650432587871e-02 3.0312171733723171e-02 0.0000000000000000e+00  4.8329908300757639e-02 3.6431843229359752e-02 0.0000000000000000e+00  4.5456794948742524e-02 4.0618991820200845e-02 0.0000000000000000e+00  4.2516299640012613e-02 4.2998652966050641e-02 0.0000000000000000e+00  3.9632893376985945e-02 4.3718582194120968e-02 0.0000000000000000e+00  3.6901697477809997e-02 4.2939512777426442e-02 0.0000000000000000e+00  3.4393402226294022e-02 4.0828591382821348e-02 0.0000000000000000e+00  3.2157669572430735e-02 3.7554825595639184e-02 0.0000000000000000e+00  3.0226944111270200e-02 3.3285255715573656e-02 0.0000000000000000e+00  2.8620637910477906e-02 2.8183024727832705e-02 0.0000000000000000e+00  2.7349143483985448e-02 2.2406073220974144e-02 0.0000000000000000e+00  2.6417245246103865e-02 1.6107414544639657e-02 0.0000000000000000e+00  2.5827686148480789e-02 9.4360496890519910e-03 0.0000000000000000e+00  2.5582682160297424e-02 2.5385878223286224e-03 0.0000000000000000e+00  2.5687009495444484e-02 -4.4381892525329446e-03 0.0000000000000000e+00  