<?xml version="1.0"?>
<VTKFile type="UnstructuredGrid"  version="0.1"  >
<UnstructuredGrid>
<Piece  NumberOfPoints="759" NumberOfCells="1408">
<Points>
<DataArray  type="Float64"  NumberOfComponents="3"  format="ascii">0 0.46875 0  0.03125 0.46875 0  0.03125 0.515625 0  0 0.515625 0  0.0625 0.46875 0  0.0625 0.515625 0  0.09375 0.46875 0  0.09375 0.515625 0  0.125 0.46875 0  0.125 0.515625 0  0.15625 0.46875 0  0.15625 0.515625 0  0.1875 0.46875 0  0.1875 0.515625 0  0.21875 0.46875 0  0.21875 0.515625 0  0.25 0.46875 0  0.25 0.515625 0  0.28125 0.46875 0  0.28125 0.515625 0  0.3125 0.46875 0  0.3125 0.515625 0  0.34375 0.46875 0  0.34375 0.515625 0  0.375 0.46875 0  0.375 0.515625 0  0.40625 0.46875 0  0.40625 0.515625 0  0.4375 0.46875 0  0.4375 0.515625 0  0.46875 0.46875 0  0.46875 0.515625 0  0.5 0.46875 0  0.5 0.515625 0  0.53125 0.46875 0  0.53125 0.515625 0  0.5625 0.46875 0  0.5625 0.515625 0  0.59375 0.46875 0  0.59375 0.515625 0  0.625 0.46875 0  0.625 0.515625 0  0.65625 0.46875 0  0.65625 0.515625 0  0.6875 0.46875 0  0.6875 0.515625 0  0.71875 0.46875 0  0.71875 0.515625 0  0.75 0.46875 0  0.75 0.515625 0  0.78125 0.46875 0  0.78125 0.515625 0  0.8125 0.46875 0  0.8125 0.515625 0  0.84375 0.46875 0  0.84375 0.515625 0  0.875 0.46875 0  0.875 0.515625 0  0.90625 0.46875 0  0.90625 0.515625 0  0.9375 0.46875 0  0.9375 0.515625 0  0.96875 0.46875 0  0.96875 0.515625 0  1 0.46875 0  1 0.515625 0  0.03125 0.5625 0  0 0.5625 0  0.0625 0.5625 0  0.09375 0.5625 0  0.125 0.5625 0  0.15625 0.5625 0  0.1875 0.5625 0  0.21875 0.5625 0  0.25 0.5625 0  0.28125 0.5625 0  0.3125 0.5625 0  0.34375 0.5625 0  0.375 0.5625 0  0.40625 0.5625 0  0.4375 0.5625 0  0.46875 0.5625 0  0.5 0.5625 0  0.53125 0.5625 0  0.5625 0.5625 0  0.59375 0.5625 0  0.625 0.5625 0  0.65625 0.5625 0  0.6875 0.5625 0  0.71875 0.5625 0  0.75 0.5625 0  0.78125 0.5625 0  0.8125 0.5625 0  0.84375 0.5625 0  0.875 0.5625 0  0.90625 0.5625 0  0.9375 0.5625 0  0.96875 0.5625 0  1 0.5625 0  0.03125 0.609375 0  0 0.609375 0  0.0625 0.609375 0  0.09375 0.609375 0  0.125 0.609375 0  0.15625 0.609375 0  0.1875 0.609375 0  0.21875 0.609375 0  0.25 0.609375 0  0.28125 0.609375 0  0.3125 0.609375 0  0.34375 0.609375 0  0.375 0.609375 0  0.40625 0.609375 0  0.4375 0.609375 0  0.46875 0.609375 0  0.5 0.609375 0  0.53125 0.609375 0  0.5625 0.609375 0  0.59375 0.609375 0  0.625 0.609375 0  0.65625 0.609375 0  0.6875 0.609375 0  0.71875 0.609375 0  0.75 0.609375 0  0.78125 0.609375 0  0.8125 0.609375 0  0.84375 0.609375 0  0.875 0.609375 0  0.90625 0.609375 0  0.9375 0.609375 0  0.96875 0.609375 0  1 0.609375 0  0.03125 0.65625 0  0 0.65625 0  0.0625 0.65625 0  0.09375 0.65625 0  0.125 0.65625 0  0.15625 0.65625 0  0.1875 0.65625 0  0.21875 0.65625 0  0.25 0.65625 0  0.28125 0.65625 0  0.3125 0.65625 0  0.34375 0.65625 0  0.375 0.65625 0  0.40625 0.65625 0  0.4375 0.65625 0  0.46875 0.65625 0  0.5 0.65625 0  0.53125 0.65625 0  0.5625 0.65625 0  0.59375 0.65625 0  0.625 0.65625 0  0.65625 0.65625 0  0.6875 0.65625 0  0.71875 0.65625 0  0.75 0.65625 0  0.78125 0.65625 0  0.8125 0.65625 0  0.84375 0.65625 0  0.875 0.65625 0  0.90625 0.65625 0  0.9375 0.65625 0  0.96875 0.65625 0  1 0.65625 0  0.03125 0.703125 0  0 0.703125 0  0.0625 0.703125 0  0.09375 0.703125 0  0.125 0.703125 0  0.15625 0.703125 0  0.1875 0.703125 0  0.21875 0.703125 0  0.25 0.703125 0  0.28125 0.703125 0  0.3125 0.703125 0  0.34375 0.703125 0  0.375 0.703125 0  0.40625 0.703125 0  0.4375 0.703125 0  0.46875 0.703125 0  0.5 0.703125 0  0.53125 0.703125 0  0.5625 0.703125 0  0.59375 0.703125 0  0.625 0.703125 0  0.65625 0.703125 0  0.6875 0.703125 0  0.71875 0.703125 0  0.75 0.703125 0  0.78125 0.703125 0  0.8125 0.703125 0  0.84375 0.703125 0  0.875 0.703125 0  0.90625 0.703125 0  0.9375 0.703125 0  0.96875 0.703125 0  1 0.703125 0  0.03125 0.75 0  0 0.75 0  0.0625 0.75 0  0.09375 0.75 0  0.125 0.75 0  0.15625 0.75 0  0.1875 0.75 0  0.21875 0.75 0  0.25 0.75 0  0.28125 0.75 0  0.3125 0.75 0  0.34375 0.75 0  0.375 0.75 0  0.40625 0.75 0  0.4375 0.75 0  0.46875 0.75 0  0.5 0.75 0  0.53125 0.75 0  0.5625 0.75 0  0.59375 0.75 0  0.625 0.75 0  0.65625 0.75 0  0.6875 0.75 0  0.71875 0.75 0  0.75 0.75 0  0.78125 0.75 0  0.8125 0.75 0  0.84375 0.75 0  0.875 0.75 0  0.90625 0.75 0  0.9375 0.75 0  0.96875 0.75 0  1 0.75 0  0.03125 0.796875 0  0 0.796875 0  0.0625 0.796875 0  0.09375 0.796875 0  0.125 0.796875 0  0.15625 0.796875 0  0.1875 0.796875 0  0.21875 0.796875 0  0.25 0.796875 0  0.28125 0.796875 0  0.3125 0.796875 0  0.34375 0.796875 0  0.375 0.796875 0  0.40625 0.796875 0  0.4375 0.796875 0  0.46875 0.796875 0  0.5 0.796875 0  0.53125 0.796875 0  0.5625 0.796875 0  0.59375 0.796875 0  0.625 0.796875 0  0.65625 0.796875 0  0.6875 0.796875 0  0.71875 0.796875 0  0.75 0.796875 0  0.78125 0.796875 0  0.8125 0.796875 0  0.84375 0.796875 0  0.875 0.796875 0  0.90625 0.796875 0  0.9375 0.796875 0  0.96875 0.796875 0  1 0.796875 0  0.03125 0.84375 0  0 0.84375 0  0.0625 0.84375 0  0.09375 0.84375 0  0.125 0.84375 0  0.15625 0.84375 0  0.1875 0.84375 0  0.21875 0.84375 0  0.25 0.84375 0  0.28125 0.84375 0  0.3125 0.84375 0  0.34375 0.84375 0  0.375 0.84375 0  0.40625 0.84375 0  0.4375 0.84375 0  0.46875 0.84375 0  0.5 0.84375 0  0.53125 0.84375 0  0.5625 0.84375 0  0.59375 0.84375 0  0.625 0.84375 0  0.65625 0.84375 0  0.6875 0.84375 0  0.71875 0.84375 0  0.75 0.84375 0  0.78125 0.84375 0  0.8125 0.84375 0  0.84375 0.84375 0  0.875 0.84375 0  0.90625 0.84375 0  0.9375 0.84375 0  0.96875 0.84375 0  1 0.84375 0  0.03125 0.890625 0  0 0.890625 0  0.0625 0.890625 0  0.09375 0.890625 0  0.125 0.890625 0  0.15625 0.890625 0  0.1875 0.890625 0  0.21875 0.890625 0  0.25 0.890625 0  0.28125 0.890625 0  0.3125 0.890625 0  0.34375 0.890625 0  0.375 0.890625 0  0.40625 0.890625 0  0.4375 0.890625 0  0.46875 0.890625 0  0.5 0.890625 0  0.53125 0.890625 0  0.5625 0.890625 0  0.59375 0.890625 0  0.625 0.890625 0  0.65625 0.890625 0  0.6875 0.890625 0  0.71875 0.890625 0  0.75 0.890625 0  0.78125 0.890625 0  0.8125 0.890625 0  0.84375 0.890625 0  0.875 0.890625 0  0.90625 0.890625 0  0.9375 0.890625 0  0.96875 0.890625 0  1 0.890625 0  0.03125 0.9375 0  0 0.9375 0  0.0625 0.9375 0  0.09375 0.9375 0  0.125 0.9375 0  0.15625 0.9375 0  0.1875 0.9375 0  0.21875 0.9375 0  0.25 0.9375 0  0.28125 0.9375 0  0.3125 0.9375 0  0.34375 0.9375 0  0.375 0.9375 0  0.40625 0.9375 0  0.4375 0.9375 0  0.46875 0.9375 0  0.5 0.9375 0  0.53125 0.9375 0  0.5625 0.9375 0  0.59375 0.9375 0  0.625 0.9375 0  0.65625 0.9375 0  0.6875 0.9375 0  0.71875 0.9375 0  0.75 0.9375 0  0.78125 0.9375 0  0.8125 0.9375 0  0.84375 0.9375 0  0.875 0.9375 0  0.90625 0.9375 0  0.9375 0.9375 0  0.96875 0.9375 0  1 0.9375 0  0.03125 0.984375 0  0 0.984375 0  0.0625 0.984375 0  0.09375 0.984375 0  0.125 0.984375 0  0.15625 0.984375 0  0.1875 0.984375 0  0.21875 0.984375 0  0.25 0.984375 0  0.28125 0.984375 0  0.3125 0.984375 0  0.34375 0.984375 0  0.375 0.984375 0  0.40625 0.984375 0  0.4375 0.984375 0  0.46875 0.984375 0  0.5 0.984375 0  0.53125 0.984375 0  0.5625 0.984375 0  0.59375 0.984375 0  0.625 0.984375 0  0.65625 0.984375 0  0.6875 0.984375 0  0.71875 0.984375 0  0.75 0.984375 0  0.78125 0.984375 0  0.8125 0.984375 0  0.84375 0.984375 0  0.875 0.984375 0  0.90625 0.984375 0  0.9375 0.984375 0  0.96875 0.984375 0  1 0.984375 0  0.03125 1.03125 0  0 1.03125 0  0.0625 1.03125 0  0.09375 1.03125 0  0.125 1.03125 0  0.15625 1.03125 0  0.1875 1.03125 0  0.21875 1.03125 0  0.25 1.03125 0  0.28125 1.03125 0  0.3125 1.03125 0  0.34375 1.03125 0  0.375 1.03125 0  0.40625 1.03125 0  0.4375 1.03125 0  0.46875 1.03125 0  0.5 1.03125 0  0.53125 1.03125 0  0.5625 1.03125 0  0.59375 1.03125 0  0.625 1.03125 0  0.65625 1.03125 0  0.6875 1.03125 0  0.71875 1.03125 0  0.75 1.03125 0  0.78125 1.03125 0  0.8125 1.03125 0  0.84375 1.03125 0  0.875 1.03125 0  0.90625 1.03125 0  0.9375 1.03125 0  0.96875 1.03125 0  1 1.03125 0  0.03125 1.078125 0  0 1.078125 0  0.0625 1.078125 0  0.09375 1.078125 0  0.125 1.078125 0  0.15625 1.078125 0  0.1875 1.078125 0  0.21875 1.078125 0  0.25 1.078125 0  0.28125 1.078125 0  0.3125 1.078125 0  0.34375 1.078125 0  0.375 1.078125 0  0.40625 1.078125 0  0.4375 1.078125 0  0.46875 1.078125 0  0.5 1.078125 0  0.53125 1.078125 0  0.5625 1.078125 0  0.59375 1.078125 0  0.625 1.078125 0  0.65625 1.078125 0  0.6875 1.078125 0  0.71875 1.078125 0  0.75 1.078125 0  0.78125 1.078125 0  0.8125 1.078125 0  0.84375 1.078125 0  0.875 1.078125 0  0.90625 1.078125 0  0.9375 1.078125 0  0.96875 1.078125 0  1 1.078125 0  0.03125 1.125 0  0 1.125 0  0.0625 1.125 0  0.09375 1.125 0  0.125 1.125 0  0.15625 1.125 0  0.1875 1.125 0  0.21875 1.125 0  0.25 1.125 0  0.28125 1.125 0  0.3125 1.125 0  0.34375 1.125 0  0.375 1.125 0  0.40625 1.125 0  0.4375 1.125 0  0.46875 1.125 0  0.5 1.125 0  0.53125 1.125 0  0.5625 1.125 0  0.59375 1.125 0  0.625 1.125 0  0.65625 1.125 0  0.6875 1.125 0  0.71875 1.125 0  0.75 1.125 0  0.78125 1.125 0  0.8125 1.125 0  0.84375 1.125 0  0.875 1.125 0  0.90625 1.125 0  0.9375 1.125 0  0.96875 1.125 0  1 1.125 0  0.03125 1.171875 0  0 1.171875 0  0.0625 1.171875 0  0.09375 1.171875 0  0.125 1.171875 0  0.15625 1.171875 0  0.1875 1.171875 0  0.21875 1.171875 0  0.25 1.171875 0  0.28125 1.171875 0  0.3125 1.171875 0  0.34375 1.171875 0  0.375 1.171875 0  0.40625 1.171875 0  0.4375 1.171875 0  0.46875 1.171875 0  0.5 1.171875 0  0.53125 1.171875 0  0.5625 1.171875 0  0.59375 1.171875 0  0.625 1.171875 0  0.65625 1.171875 0  0.6875 1.171875 0  0.71875 1.171875 0  0.75 1.171875 0  0.78125 1.171875 0  0.8125 1.171875 0  0.84375 1.171875 0  0.875 1.171875 0  0.90625 1.171875 0  0.9375 1.171875 0  0.96875 1.171875 0  1 1.171875 0  0.03125 1.21875 0  0 1.21875 0  0.0625 1.21875 0  0.09375 1.21875 0  0.125 1.21875 0  0.15625 1.21875 0  0.1875 1.21875 0  0.21875 1.21875 0  0.25 1.21875 0  0.28125 1.21875 0  0.3125 1.21875 0  0.34375 1.21875 0  0.375 1.21875 0  0.40625 1.21875 0  0.4375 1.21875 0  0.46875 1.21875 0  0.5 1.21875 0  0.53125 1.21875 0  0.5
[...]
<PointData  Vectors="u"> 
<DataArray  type="Float64"  Name="u"  NumberOfComponents="3" format="ascii">1.4067525977651076e-02 7.1476916143710812e-04 0.0000000000000000e+00  1.6214056470765011e-02 3.9852592919670631e-03 0.0000000000000000e+00  1.7841446905072333e-02 4.2676595256200926e-03 0.0000000000000000e+00  1.5287130591621498e-02 9.3286279950695002e-04 0.0000000000000000e+00  1.5660042444660471e-02 7.2565204088935369e-03 0.0000000000000000e+00  1.7452295159376841e-02 7.8525202132923699e-03 0.0000000000000000e+00  1.4566776014793330e-02 1.0181650705523822e-02 0.0000000000000000e+00  1.6146452174861436e-02 1.1020226598588362e-02 0.0000000000000000e+00  1.3135542828768231e-02 1.2641135003978215e-02 0.0000000000000000e+00  1.4485413180227589e-02 1.3659238376327347e-02 0.0000000000000000e+00  1.1474244706803419e-02 1.4569255181701731e-02 0.0000000000000000e+00  1.2622188543185156e-02 1.5707989555919701e-02 0.0000000000000000e+00  9.6725313945698506e-03 1.5921754230046568e-02 0.0000000000000000e+00  1.0645912650484967e-02 1.7128150449697538e-02 0.0000000000000000e+00  7.8086781236102387e-03 1.6674631074379324e-02 0.0000000000000000e+00  8.6316309066079913e-03 1.7901800844548465e-02 0.0000000000000000e+00  5.9516470405249020e-03 1.6823848033086359e-02 0.0000000000000000e+00  6.6453613882062387e-03 1.8030488499847449e-02 0.0000000000000000e+00  4.1620519860992734e-03 1.6384110443140584e-02 0.0000000000000000e+00  4.7450148345541399e-03 1.7534096565449356e-02 0.0000000000000000e+00  2.4927550155627049e-03 1.5387238432929960e-02 0.0000000000000000e+00  2.9812086954104310e-03 1.6449205625925112e-02 0.0000000000000000e+00  9.8937046204155199e-04 1.3880214103621500e-02 0.0000000000000000e+00  1.3974723516506965e-03 1.4827284317766412e-02 0.0000000000000000e+00  -3.0936981086748252e-04 1.1923201134818703e-02 0.0000000000000000e+00  3.0805637750156342e-05 1.2732683396955838e-02 0.0000000000000000e+00  -1.3712315886833882e-03 9.5874637083604632e-03 0.0000000000000000e+00  -1.0881621255670398e-03 1.0240685233962755e-02 0.0000000000000000e+00  -2.1702569601104852e-03 6.9533738847311006e-03 0.0000000000000000e+00  -1.9348373128044410e-03 7.4354933184713010e-03 0.0000000000000000e+00  -2.6865603943835685e-03 4.1083850817077066e-03 0.0000000000000000e+00  -2.4906243426932860e-03 4.4083327568670005e-03 0.0000000000000000e+00  -2.9062081290527628e-03 1.1450901292418085e-03 0.0000000000000000e+00  -2.7427121125398776e-03 1.2555108808756010e-03 0.0000000000000000e+00  -2.8211554954694594e-03 -1.8407548198303438e-03 0.0000000000000000e+00  -2.6841776063472340e-03 -1.9234382336282573e-03 0.0000000000000000e+00  -2.4293073912645198e-03 -4.7521795320807194e-03 0.0000000000000000e+00  -2.3140175215469313e-03 -5.0276808541957442e-03 0.0000000000000000e+00  -1.7346108416482805e-03 -7.4930297973347356e-03 0.0000000000000000e+00  -1.6373863244440977e-03 -7.9570067829181027e-03 0.0000000000000000e+00  -7.4722872142152989e-04 -9.9700396512320526e-03 0.0000000000000000e+00  -6.6578340425136771e-04 -1.0613877547656005e-02 0.0000000000000000e+00  5.1622741709641119e-04 -1.2095038678501304e-02 0.0000000000000000e+00  5.8251564457212791e-04 -1.2905545710237339e-02 0.0000000000000000e+00  2.0323949052411723e-03 -1.3787245589529274e-02 0.0000000000000000e+00  2.0821108175646239e-03 -1.4746343620279819e-02 0.0000000000000000e+00  3.7709077848199169e-03 -1.4975722739910787e-02 0.0000000000000000e+00  3.7999851624775918e-03 -1.6060074255751740e-02 0.0000000000000000e+00  5.6941010815044629e-03 -1.5601905600501174e-02 0.0000000000000000e+00  5.6951355913753918e-03 -1.6782561582957784e-02 0.0000000000000000e+00  7.7567813807035771e-03 -1.5622240650141214e-02 0.0000000000000000e+00  7.7180615856146505e-03 -1.6864246291298422e-02 0.0000000000000000e+00  9.9058384227686917e-03 -1.5010817932849455e-02 0.0000000000000000e+00  9.8103753606225159e-03 -1.6272828729242093e-02 0.0000000000000000e+00  1.2079010773002483e-02 -1.3762011488799401e-02 0.0000000000000000e+00  1.1903634996306263e-02 -1.4995810050803778e-02 0.0000000000000000e+00  1.4199289762975138e-02 -1.1893184012997490e-02 0.0000000000000000e+00  1.3915360921876433e-02 -1.3042987792185873e-02 0.0000000000000000e+00  1.6148788220681672e-02 -9.4484907489486847e-03 0.0000000000000000e+00  1.5730102557080437e-02 -1.0449480562478464e-02 0.0000000000000000e+00  1.7650244523352291e-02 -6.5104606034140323e-03 0.0000000000000000e+00  1.7113503205290780e-02 -7.2843130152955987e-03 0.0000000000000000e+00  1.7829492225570585e-02 -3.2717991837613813e-03 0.0000000000000000e+00  1.7368442476755175e-02 -3.7032725081961515e-03 0.0000000000000000e+00  1.5114039034421002e-02 -3.0043138914272432e-04 0.0000000000000000e+00  1.4519830517017305e-02 -4.1187492256464643e-04 0.0000000000000000e+00  1.9742841514043402e-02 5.0630363354125744e-03 0.0000000000000000e+00  1.7120151789169070e-02 1.3990969937092614e-03 0.0000000000000000e+00  1.9233227417962063e-02 9.3050760992071761e-03 0.0000000000000000e+00  1.7853972611965058e-02 1.3000400027824257e-02 0.0000000000000000e+00  1.6084918313001316e-02 1.6022061693390929e-02 0.0000000000000000e+00  1.4095119226942551e-02 1.8321559640422199e-02 0.0000000000000000e+00  1.1986946389270269e-02 1.9874526411000116e-02 0.0000000000000000e+00  9.8417412356048110e-03 2.0676324565617188e-02 0.0000000000000000e+00  7.7296979769197957e-03 2.0741119832508176e-02 0.0000000000000000e+00  5.7123728225445458e-03 2.0100576887435152e-02 0.0000000000000000e+00  3.8428539295807559e-03 1.8802344249967122e-02 0.0000000000000000e+00  2.1667545948846709e-03 1.6908192284681479e-02 0.0000000000000000e+00  7.2227247013475690e-04 1.4492203225478666e-02 0.0000000000000000e+00  -4.5891719734408290e-04 1.1638793350782810e-02 0.0000000000000000e+00  -1.3517303949447952e-03 8.4409440909128195e-03 0.0000000000000000e+00  -1.9370192947262940e-03 4.9983186940675706e-03 0.0000000000000000e+00  -2.2016854157002569e-03 1.4155986122454181e-03 0.0000000000000000e+00  -2.1383847045478833e-03 -2.1993084430907820e-03 0.0000000000000000e+00  -1.7458604079343876e-03 -5.7369155148583578e-03 0.0000000000000000e+00  -1.0289247148358150e-03 -9.0879885212375548e-03 0.0000000000000000e+00  9.8952045844245687e-07 -1.2145346879123945e-02 0.0000000000000000e+00  1.3255417461755514e-03 -1.4805900549297054e-02 0.0000000000000000e+00  2.9186968414625148e-03 -1.6972751978769615e-02 0.0000000000000000e+00  4.7463393970700379e-03 -1.8557549758144203e-02 0.0000000000000000e+00  6.7653992719784338e-03 -1.9482920148109102e-02 0.0000000000000000e+00  8.9234411799462999e-03 -1.9685071658581455e-02 0.0000000000000000e+00  1.1157789822815600e-02 -1.9116352526010284e-02 0.0000000000000000e+00  1.3394455300404009e-02 -1.7747766228596216e-02 0.0000000000000000e+00  1.5543382840837961e-02 -1.5571307511479934e-02 0.0000000000000000e+00  1.7477506181872795e-02 -1.2602912992352057e-02 0.0000000000000000e+00  1.8933907279671806e-02 -8.8922610992520044e-03 0.0000000000000000e+00  1.9097697890003599e-02 -4.5991234766989287e-03 0.0000000000000000e+00  1.5611822764501550e-02 -8.5912251596159412e-04 0.0000000000000000e+00  2.2619645731891035e-02 6.0256691917553286e-03 0.0000000000000000e+00  1.9707842018295622e-02 1.8649482917207079e-03 0.0000000000000000e+00  2.2031886934962899e-02 1.1033265031911965e-02 0.0000000000000000e+00  2.0533276874152396e-02 1.5346497588051754e-02 0.0000000000000000e+00  1.8620529077309007e-02 1.8817072654441394e-02 0.0000000000000000e+00  1.6470268743915644e-02 2.1408958274418338e-02 0.0000000000000000e+00  1.4192465178698295e-02 2.3113945582832671e-02 0.0000000000000000e+00  1.1876374676966886e-02 2.3943651244107102e-02 0.0000000000000000e+00  9.5993125862287084e-03 2.3927744464078485e-02 0.0000000000000000e+00  7.4276655469826761e-03 2.3112528553541029e-02 0.0000000000000000e+00  5.4188221340640179e-03 2.1559234738996881e-02 0.0000000000000000e+00  3.6207973805930825e-03 1.9342277558451935e-02 0.0000000000000000e+00  2.0740265476560638e-03 1.6547333817176640e-02 0.0000000000000000e+00  8.1103989098166968e-04 1.3269644982598281e-02 0.0000000000000000e+00  -1.4200440226163700e-04 9.6121996345254496e-03 0.0000000000000000e+00  -7.6569892705581047e-04 5.6842623350702413e-03 0.0000000000000000e+00  -1.0462233652038151e-03 1.5997281124328095e-03 0.0000000000000000e+00  -9.7594000017052311e-04 -2.5241848541097626e-03 0.0000000000000000e+00  -5.5280704598115811e-04 -6.5685063020557346e-03 0.0000000000000000e+00  2.1879944900040380e-04 -1.0413867872003381e-02 0.0000000000000000e+00  1.3281553379789334e-03 -1.3942203432775403e-02 0.0000000000000000e+00  2.7570108955851688e-03 -1.7038393570422441e-02 0.0000000000000000e+00  4.4792665838314745e-03 -1.9592289025362329e-02 0.0000000000000000e+00  6.4596142094378167e-03 -2.1500808421373391e-02 0.0000000000000000e+00  8.6530592929224045e-03 -2.2670364345367830e-02 0.0000000000000000e+00  1.1003540994916770e-02 -2.3019365173426367e-02 0.0000000000000000e+00  1.3443478491443214e-02 -2.2480865757310380e-02 0.0000000000000000e+00  1.5891743105827635e-02 -2.1005134086725392e-02 0.0000000000000000e+00  1.8248643167323650e-02 -1.8562254290149158e-02 0.0000000000000000e+00  2.0370238666387191e-02 -1.5145752153174086e-02 0.0000000000000000e+00  2.1948544273875464e-02 -1.0786223012018759e-02 0.0000000000000000e+00  2.2003888956992589e-02 -5.6606604416079053e-03 0.0000000000000000e+00  1.7772764203326980e-02 -1.3602228197405902e-03 0.0000000000000000e+00  2.6491334609308855e-02 7.0909197312656481e-03 0.0000000000000000e+00  2.3094112049441558e-02 2.3489302526179213e-03 0.0000000000000000e+00  2.5853476539411703e-02 1.2941329563661945e-02 0.0000000000000000e+00  2.4223513507597105e-02 1.7929706863651498e-02 0.0000000000000000e+00  2.2148134691922360e-02 2.1887306680812593e-02 0.0000000000000000e+00  1.9817119999117533e-02 2.4792465679051311e-02 0.0000000000000000e+00  1.7350726023233190e-02 2.6655285158512940e-02 0.0000000000000000e+00  1.4847563612170385e-02 2.7506083769104100e-02 0.0000000000000000e+00  1.2391459554841559e-02 2.7392628267094821e-02 0.0000000000000000e+00  1.0054942788586785e-02 2.6378293364423742e-02 0.0000000000000000e+00  7.8985557218696125e-03 2.4540117137978219e-02 0.0000000000000000e+00  5.9735137924063035e-03 2.1966907964082107e-02 0.0000000000000000e+00  4.3209146725186193e-03 1.8757399710264619e-02 0.0000000000000000e+00  2.9746332383975933e-03 1.5018519589517644e-02 0.0000000000000000e+00  1.9603401526214329e-03 1.0863939424023047e-02 0.0000000000000000e+00  1.2981215064293229e-03 6.4126347425688367e-03 0.0000000000000000e+00  1.0013392879626984e-03 1.7878487031617483e-03 0.0000000000000000e+00  1.0785555087934840e-03 -2.8841428171554099e-03 0.0000000000000000e+00  1.5320258797182555e-03 -7.4748675476008289e-03 0.0000000000000000e+00  2.3588046481558401e-03 -1.1854904990299448e-02 0.0000000000000000e+00  3.5489012774394570e-03 -1.5894889970859374e-02 0.0000000000000000e+00  5.0854923258361077e-03 -1.9467044740796614e-02 0.0000000000000000e+00  6.9427594999694362e-03 -2.2446694219297531e-02 0.0000000000000000e+00  9.0856031292002367e-03 -2.4714300628395934e-02 0.0000000000000000e+00  1.1467415790854722e-02 -2.6157664056119315e-02 0.0000000000000000e+00  1.4029577129687446e-02 -2.6674509243618166e-02 0.0000000000000000e+00  1.6699495420731125e-02 -2.6175243480394721e-02 0.0000000000000000e+00  1.9389234617717507e-02 -2.4585883583103704e-02 0.0000000000000000e+00  2.1988422961516270e-02 -2.1851255444094390e-02 0.0000000000000000e+00  2.4333951816812187e-02 -1.7939934839358809e-02 0.0000000000000000e+00  2.6062910496751850e-02 -1.2862684499330732e-02 0.0000000000000000e+00  2.5993123675847843e-02 -6.8165550062221905e-03 0.0000000000000000e+00  2.0819124760305421e-02 -1.8586341977179619e-03 0.0000000000000000e+00  3.1404093428397270e-02 8.2546905018420040e-03 0.0000000000000000e+00  2.7321011391455412e-02 2.8725794957461318e-03 0.0000000000000000e+00  3.0743914806089030e-02 1.5019774528904944e-02 0.0000000000000000e+00  2.8978713170969547e-02 2.0735377085919285e-02 0.0000000000000000e+00  2.6734791059191555e-02 2.5212511529097700e-02 0.0000000000000000e+00  2.4221287008578680e-02 2.8445756447859970e-02 0.0000000000000000e+00  2.1570448504890125e-02 3.0466383569869152e-02 0.0000000000000000e+00  1.8888937178889710e-02 3.1326422993333200e-02 0.0000000000000000e+00  1.6267875993723129e-02 3.1094856915937590e-02 0.0000000000000000e+00  1.3783349215435904e-02 2.9854936466026251e-02 0.0000000000000000e+00  1.1499442145219956e-02 2.7701998256531933e-02 0.0000000000000000e+00  9.4673290443669598e-03 2.4741174091908326e-02 0.0000000000000000e+00  7.7291475268766599e-03 2.1085621400978215e-02 0.0000000000000000e+00  6.3167812800174611e-03 1.6854796300233055e-02 0.0000000000000000e+00  5.2560404767595745e-03 1.2173255626814565e-02 0.0000000000000000e+00  4.5648057726272902e-03 7.1696282710799475e-03 0.0000000000000000e+00  4.2570413017193696e-03 1.9758708655256271e-03 0.0000000000000000e+00  4.3402404716139749e-03 -3.2732049314198211e-03 0.0000000000000000e+00  4.8184725526276857e-03 -8.4405069723679921e-03 0.0000000000000000e+00  5.6893814737605927e-03 -1.3386965420872411e-02 0.0000000000000000e+00  6.9459066186447786e-03 -1.7972310699119608e-02 0.0000000000000000e+00  8.5729224158540632e-03 -2.2055744035336770e-02 0.0000000000000000e+00  1.0547558005156306e-02 -2.5497282057614080e-02 0.0000000000000000e+00  1.2835909193826852e-02 -2.8159273475313041e-02 0.0000000000000000e+00  1.5392483597593994e-02 -2.9908568689195725e-02 0.0000000000000000e+00  1.8157264672336724e-02 -3.0619082966321039e-02 0.0000000000000000e+00  2.1054865399897520e-02 -3.0174844931438342e-02 0.0000000000000000e+00  2.3991171532733897e-02 -2.8473485512149989e-02 0.0000000000000000e+00  2.6845854925131096e-02 -2.5430335825926617e-02 0.0000000000000000e+00  2.9434335326281424e-02 -2.0985140534165610e-02 0.0000000000000000e+00  3.1328669394794867e-02 -1.5125909865864883e-02 0.0000000000000000e+00  3.1098726864756222e-02 -8.0703303664181446e-03 0.0000000000000000e+00  2.4741172571117565e-02 -2.3735643929518233e-03 0.0000000000000000e+00  3.7450966058638568e-02 9.5173338401091153e-03 0.0000000000000000e+00  3.2462172991927087e-02 3.4527363354013088e-03 0.0000000000000000e+00  3.6801255397040017e-02 1.7264882745742911e-02 0.0000000000000000e+00  3.4906372701165596e-02 2.3754237800853298e-02 0.0000000000000000e+00  3.2501812648453338e-02 2.8775584949628216e-02 0.0000000000000000e+00  2.9822990237275679e-02 3.2342967179257255e-02 0.0000000000000000e+00  2.7013926663603274e-02 3.4512593451410577e-02 0.0000000000000000e+00  2.4189540743959112e-02 3.5362308868372605e-02 0.0000000000000000e+00  2.1445167365320730e-02 3.4986094075311572e-02 0.0000000000000000e+00  1.8859782245341829e-02 3.3490641139990937e-02 0.0000000000000000e+00  1.6496539783904224e-02 3.0992318759221853e-02 0.0000000000000000e+00  1.4406001218413461e-02 2.7614802262864394e-02 0.0000000000000000e+00  1.2626212447806980e-02 2.3486881505781949e-02 0.0000000000000000e+00  1.1187299387722860e-02 1.8741170745639704e-02 0.0000000000000000e+00  1.0110203924478938e-02 1.3512891605651441e-02 0.0000000000000000e+00  9.4120128481333526e-03 7.9396027951068281e-03 0.0000000000000000e+00  9.1031462349244006e-03 2.1608280728824861e-03 0.0000000000000000e+00  9.1925359120975346e-03 -3.6815887138141887e-03 0.0000000000000000e+00  9.6833628589402306e-03 -9.4433135772260847e-03 0.0000000000000000e+00  1.0577167843523014e-02 -1.4977124265870286e-02 0.0000000000000000e+00  1.1868964094520821e-02 -2.0132692163126416e-02 0.0000000000000000e+00  1.3549201516041266e-02 -2.4756755471970020e-02 0.0000000000000000e+00  1.5598908291369454e-02 -2.8693547748830841e-02 0.0000000000000000e+00  1.7989587395615351e-02 -3.1786069468911451e-02 0.0000000000000000e+00  2.0678992363349726e-02 -3.3877827457765512e-02 0.0000000000000000e+00  2.3609699398657549e-02 -3.4815523884816138e-02 0.0000000000000000e+00  2.6705828623910244e-02 -3.4452406615683148e-02 0.0000000000000000e+00  2.9869966045529005e-02 -3.2652496806093528e-02 0.0000000000000000e+00  3.2972708903385800e-02 -2.9295907787618810e-02 0.0000000000000000e+00  3.5806731730402594e-02 -2.4287653526189848e-02 0.0000000000000000e+00  3.7867335574952386e-02 -1.7587723868385197e-02 0.0000000000000000e+00  3.7424035217411084e-02 -9.4337632499781072e-03 0.0000000000000000e+00  2.9597812037123618e-02 -2.9296700411634087e-03 0.0000000000000000e+00  4.4761940134810822e-02 1.0874632567184715e-02 0.0000000000000000e+00  3.8618053799777584e-02 4.1029901055950812e-03 0.0000000000000000e+00  4.4164585681012558e-02 1.9664018101754999e-02 0.0000000000000000e+00  4.2156002530294404e-02 2.6961840368145244e-02 0.0000000000000000e+00  3.9614299729826274e-02 3.2537695974645280e-02 0.0000000000000000e+00  3.6807257678719049e-02 3.6429971127373575e-02 0.0000000000000000e+00  3.3891401505843445e-02 3.8725330727553235e-02 0.0000000000000000e+00  3.0987804843620202e-02 3.9532912170174593e-02 0.0000000000000000e+00  2.8193853126468549e-02 3.8976754732034435e-02 0.0000000000000000e+00  2.5586910460566346e-02 3.7191225431913492e-02 0.0000000000000000e+00  2.3226453232578367e-02 3.4317108548087664e-02 0.0000000000000000e+00  2.1156539505654052e-02 3.0498734225645339e-02 0.0000000000000000e+00  1.9409261729520753e-02 2.5881776848377943e-02 0.0000000000000000e+00  1.8006529664613840e-02 2.0611887194194555e-02 0.0000000000000000e+00  1.6964542250094191e-02 1.4834278178596278e-02 0.0000000000000000e+00  1.6293398322783328e-02 8.6935860951755459e-03 0.0000000000000000e+00  1.6002458676710990e-02 2.3349047315925522e-03 0.0000000000000000e+00  1.6097125307370487e-02 -4.0955821757476009e-03 0.0000000000000000e+00  1.6584037708421269e-02 -1.0448813138392495e-02 0.0000000000000000e+00  1.7465757828342525e-02 -1.6571916404729416e-02 0.0000000000000000e+00  1.8744627708680874e-02 -2.2306622554390698e-02 0.0000000000000000e+00  2.0416528828006677e-02 -2.7488519668808116e-02 0.0000000000000000e+00  2.2472002446194024e-02 -3.1946656154163477e-02 0.0000000000000000e+00  2.4890486671171542e-02 -3.5503833412758742e-02 0.0000000000000000e+00  2.7638700341099887e-02 -3.7978174172441127e-02 0.0000000000000000e+00  3.0665876255577224e-02 -3.9185436365119480e-02 0.0000000000000000e+00  3.3900731741247983e-02 -3.8942941062239465e-02 0.0000000000000000e+00  3.7246237433260256e-02 -3.7074488255711253e-02 0.0000000000000000e+00  4.0566647447033886e-02 -3.3417279929264777e-02 0.0000000000000000e+00  4.3630915022985592e-02 -2.7833216269863553e-02 0.0000000000000000e+00  4.5844905439401930e-02 -2.0246196212705982e-02 0.0000000000000000e+00  4.5117099122492996e-02 -1.0911469643938116e-02 0.0000000000000000e+00  3.5487510048460333e-02 -3.5467517387005152e-03 0.0000000000000000e+00  5.3497498061210139e-02 1.2315976436058234e-02 0.0000000000000000e+00  4.5910667759886628e-02 4.8351147960850717e-03 0.0000000000000000e+00  5.3005471771076458e-02 2.2191191259245353e-02 0.0000000000000000e+00  5.0911307402540629e-02 3.0312493215670776e-02 0.0000000000000000e+00  4.8273600480314795e-02 3.6430531752960987e-02 0.0000000000000000e+00  4.5399233887477325e-02 4.0615240210976393e-02 0.0000000000000000e+00  4.2457190896376285e-02 4.2991736893565280e-02 0.0000000000000000e+00  3.9571994946268146e-02 4.3707868843423231e-02 0.0000000000000000e+00  3.6838824813737604e-02 4.2924467816097461e-02 0.0000000000000000e+00  3.4328424518312813e-02 4.0808785274616795e-02 0.0000000000000000e+00  3.2090505518984853e-02 3.7529939239720360e-02 0.0000000000000000e+00  3.0157558397770221e-02 3.3255085354235894e-02 0.0000000000000000e+00  2.8549038181256203e-02 2.8147485935959712e-02 0.0000000000000000e+00  2.7275377645726424e-02 2.2365203934404890e-02 0.0000000000000000e+00  2.6341398897914731e-02 1.6061376942996062e-02 0.0000000000000000e+00  2.5749879823741599e-02 9.3851308837526789e-03 0.0000000000000000e+00  2.5503068188271916e-02 2.4831992331903687e-03 0.0000000000000000e+00  2.5605768259276955e-02 -4.4975139878649225e-03 0.0000000000000000e+00  