<?xml version="1.0"?>
<VTKFile type="UnstructuredGrid"  version="0.1"  >
<UnstructuredGrid>
<Piece  NumberOfPoints="825" NumberOfCells="1536">
<Points>
<DataArray  type="Float64"  NumberOfComponents="3"  format="ascii">-6.352727483797773e-21 0.5 0  0.06250000956201673 0.4999999444882627 0  0.06250005078928725 0.5624999704857986 0  4.919136859521716e-08 0.5624999950067893 0  0.1250000357635957 0.4999999282662486 0  0.125000058653363 0.5624999619423899 0  0.1875000841472752 0.4999999497704843 0  0.1875000728090153 0.56249997953652 0  0.250000120563991 0.5000000071639494 0  0.2500000921608919 0.5625000202860759 0  0.3125001639369981 0.5000000768509514 0  0.3125001132810063 0.5625000753782197 0  0.3750002171696357 0.500000160859954 0  0.3750001313506674 0.5625001390904844 0  0.4375002274259859 0.5000002318008346 0  0.4375001412265245 0.5625001990925231 0  0.5000002169787915 0.5000002871192649 0  0.5000001391257751 0.5625002444684056 0  0.5625001828533619 0.5000003087402508 0  0.5625001253428199 0.5625002687127084 0  0.6250001434897166 0.500000311297793 0  0.6250001010582944 0.5625002722134256 0  0.6875000818037047 0.5000002846111704 0  0.6875000689770482 0.5625002548007956 0  0.7500000188141029 0.5000002404398177 0  0.750000032222518 0.5625002197208904 0  0.8124999675267284 0.5000001884056023 0  0.8124999948438988 0.5625001724098577 0  0.8749999160480826 0.5000001214828803 0  0.8749999588817116 0.5625001148281364 0  0.937499871058453 0.5000000467061261 0  0.9374999243881084 0.5625000496305115 0  0.9999998096771947 0.4999999609090601 0  0.9999998939937439 0.5624999780286394 0  1.06249977679483 0.4999998780356857 0  1.062499871056463 0.5624999077120679 0  1.124999788626473 0.4999998269723576 0  1.124999858827898 0.5624998491668732 0  1.187499771368399 0.4999997628634156 0  1.187499857225127 0.5624997964973025 0  1.24999978580021 0.4999997113361784 0  1.249999863941911 0.5624997537625855 0  1.312499840908164 0.4999997007878381 0  1.312499880133705 0.5624997314993431 0  1.374999862860183 0.4999996869099662 0  1.374999904004132 0.5624997229826709 0  1.437499907879126 0.4999996909614137 0  1.43749993176462 0.5624997307434686 0  1.499999986745455 0.4999997468658922 0  1.49999996392267 0.5624997637657106 0  1.562500023916578 0.4999998022563278 0  1.562499998672496 0.5624998099989725 0  1.625000071616755 0.499999861425476 0  1.625000031155609 0.5624998632883207 0  1.687500139854345 0.4999999498749526 0  1.687500060132872 0.5624999258487982 0  1.750000150707527 0.5000000125849362 0  1.750000082785621 0.5624999822735552 0  1.812500154322077 0.5000000537005775 0  1.812500094858106 0.5625000248496458 0  1.875000161724924 0.5000000958911509 0  1.875000097993678 0.5625000548717691 0  1.937500097746649 0.5000000792397841 0  1.937500095550793 0.5625000582628149 0  2 0.5 0  2.000000096270498 0.5625000387484561 0  0.06250006031521574 0.6249999874595934 0  6.041920301849224e-08 0.6249999923012992 0  0.1250000611239471 0.6249999874718519 0  0.1875000644216354 0.6250000028284167 0  0.2500000708033258 0.6250000342150037 0  0.3125000789261388 0.6250000774794453 0  0.375000086711971 0.6250001268689547 0  0.4375000920369777 0.6250001742996261 0  0.5000000926454158 0.6250002114873068 0  0.5625000871011331 0.6250002332266997 0  0.6250000752105017 0.6250002376386383 0  0.6875000578883218 0.6250002248075137 0  0.7500000364765028 0.6250001965555694 0  0.8125000129117014 0.625000156110198 0  0.8749999889890073 0.625000106237187 0  0.9374999660961566 0.6250000492734301 0  0.9999999455307801 0.6249999879292024 0  1.062499928484177 0.6249999272176129 0  1.124999917001704 0.6249998724433166 0  1.18749991199774 0.6249998251149722 0  1.249999912465545 0.6249997877633956 0  1.31249991856688 0.6249997645041223 0  1.374999929895059 0.6249997556067297 0  1.437499944524645 0.6249997619128771 0  1.499999962222212 0.6249997849902984 0  1.5624999825048 0.6249998208842701 0  1.625000002945355 0.624999864889522 0  1.687500022424951 0.6249999136483378 0  1.750000039977976 0.6249999600704578 0  1.812500053676642 0.6249999980041732 0  1.875000063920503 0.6250000246455818 0  1.937500071561564 0.6250000383113159 0  2.000000074103871 0.6250000552069266 0  0.06250005632589541 0.6875000018678122 0  5.661236307664692e-08 0.6874999975509302 0  0.1250000553432484 0.687500007476641 0  0.187500054679514 0.6875000218594187 0  0.2500000553517655 0.687500046895449 0  0.3125000574653317 0.6875000805646532 0  0.3750000604439043 0.6875001185726478 0  0.4375000632997675 0.6875001551842916 0  0.5000000646769278 0.6875001845619223 0  0.5625000632912132 0.687500202399745 0  0.6250000584054805 0.6875002064869669 0  0.6875000499467372 0.6875001964184672 0  0.7500000383489734 0.6875001732503332 0  0.8125000245074818 0.6875001390407947 0  0.8750000095295762 0.6875000961292504 0  0.9374999944420992 0.6875000469045057 0  0.9999999800877581 0.6874999941919759 0  1.062499967293382 0.687499941649969 0  1.12499995714302 0.6874998929353129 0  1.187499950340868 0.6874998507086175 0  1.249999946894104 0.6874998174197197 0  1.312499946865908 0.6874997954157934 0  1.374999950125104 0.6874997859204715 0  1.43749995612873 0.6874997895368913 0  1.49999996467691 0.6874998060765821 0  1.562499975490799 0.68749983335543 0  1.624999987694199 0.6874998680367013 0  1.68750000054212 0.6874999063426797 0  1.750000013277524 0.6874999436249244 0  1.812500024793363 0.687499975684666 0  1.875000034162714 0.6875000003556749 0  1.937500040045455 0.6875000193541966 0  2.00000004127992 0.687500042726999 0  0.06250004807777887 0.7500000152692162 0  4.832261809929968e-08 0.7500000079580701 0  0.1250000469130644 0.7500000233836832 0  0.187500045283559 0.7500000367871537 0  0.2500000440875867 0.7500000570979847 0  0.3125000439274241 0.75000008325862 0  0.375000044911415 0.7500001123022235 0  0.4375000466655559 0.7500001401691302 0  0.5000000484043881 0.7500001626663887 0  0.5625000491804337 0.7500001764170212 0  0.625000048201046 0.7500001793760627 0  0.6875000450163212 0.7500001708732731 0  0.750000039559368 0.7500001514225612 0  0.8125000321224567 0.7500001223979349 0  0.8750000232324816 0.7500000856651967 0  0.9375000134748008 0.7500000433974908 0  1.000000003402188 0.7499999981283423 0  1.0624999935941 0.7499999527533885 0  1.1249999847064 0.7499999101752002 0  1.187499977276537 0.74999987293829 0  1.249999971608614 0.7499998432476007 0  1.312499967918227 0.7499998229051678 0  1.374999966322217 0.7499998130492457 0  1.437499966823148 0.7499998140946357 0  1.499999969449157 0.7499998255688536 0  1.562499974136809 0.7499998458656697 0  1.624999980572031 0.7499998724582915 0  1.687499988285521 0.7499999022456594 0  1.749999996603171 0.7499999318607633 0  1.812500004535575 0.7499999584242741 0  1.875000010866096 0.749999980594001 0  1.9375000143734 0.7499999996840016 0  2.000000014994953 0.750000019787961 0  0.06250003997782452 0.8125000280318743 0  4.014894118407582e-08 0.8125000208793635 0  0.1250000390688833 0.8125000364198146 0  0.1875000375983269 0.8125000483651376 0  0.2500000362218638 0.81250006482299 0  0.3125000355782923 0.8125000850961211 0  0.3750000360076375 0.8125001071249996 0  0.4375000374516082 0.8125001280316182 0  0.5000000394783169 0.8125001447743728 0  0.56250004142685 0.8125001547661623 0  0.6250000426114568 0.8125001562785567 0  0.6875000424905932 0.812500148576453 0  0.7500000407582269 0.8125001318517749 0  0.8125000373615903 0.8125001070391773 0  0.8750000324489846 0.8125000756024505 0  0.9375000262833072 0.8125000393860033 0  1.000000019187026 0.812500000544527 0  1.062500011544244 0.812499961448217 0  1.125000003796801 0.8124999244843705 0  1.187499996376831 0.8124998918524717 0  1.249999989656084 0.8124998654493042 0  1.312499983959428 0.8124998467613986 0  1.374999979566212 0.8124998367305761 0  1.437499976708098 0.8124998356489923 0  1.4999999755742 0.8124998430579436 0  1.562499976249654 0.8124998576968677 0  1.624999978635933 0.8124998776177697 0  1.68749998241934 0.8124999004272357 0  1.749999987030786 0.8124999236318007 0  1.812499991630997 0.8124999451482696 0  1.874999995236245 0.8124999638816737 0  1.937499997097307 0.8124999800405469 0  1.999999997408584 0.8124999944042729 0  0.06250003385260366 0.8750000400389701 0  3.395723446435223e-08 0.8750000344853568 0  0.1250000332646682 0.8750000473660516 0  0.1875000322684686 0.8750000574109649 0  0.2500000313117505 0.8750000705177717 0  0.3125000309167198 0.8750000860778964 0  0.3750000314425657 0.8750001025939582 0  0.4375000329618065 0.8750001179926161 0  0.5000000352448912 0.8750001300486029 0  0.5625000378368394 0.8750001367993857 0  0.6250000401865921 0.875000136847833 0  0.6875000417760775 0.8750001295068268 0  0.7500000422117956 0.8750001148020429 0  0.8125000412655823 0.8750000933802817 0  0.8750000388676995 0.8750000663805284 0  0.9375000350739604 0.8750000353154137 0  1.000000030037776 0.8750000019720515 0  1.062500023999065 0.8749999683013285 0  1.125000017271005 0.8749999362748055 0  1.187500010209194 0.874999907736507 0  1.25000000318232 0.874999884279041 0  1.312499996558296 0.8749998671341324 0  1.374999990692187 0.8749998570700259 0  1.437499985909976 0.8749998543066927 0  1.499999982482 0.8749998584586837 0  1.562499980573142 0.8749998685349399 0  1.624999980185115 0.8749998830308162 0  1.687499981113818 0.8749999001128563 0  1.749999982929122 0.8749999178843815 0  1.812499985008785 0.8749999347051982 0  1.874999986682774 0.8749999494565287 0  1.937499987520271 0.8749999615166312 0  1.999999987660219 0.8749999701045543 0  0.06250003025266677 0.9375000510825893 0  3.030661678813614e-08 0.9375000476358232 0  0.1250000299367584 0.9375000566873075 0  0.187500029414812 0.9375000645883869 0  0.2500000289904979 0.9375000746945398 0  0.3125000290487789 0.9375000863936429 0  0.3750000298879739 0.9375000985290813 0  0.4375000316111216 0.9375001095657856 0  0.5000000340925607 0.9375001178547735 0  0.5625000370128606 0.9375001219100858 0  0.625000039938282 0.9375001206293547 0  0.6875000424126282 0.9375001134212806 0  0.75000004403427
[...]
<PointData  Vectors="u"> 
<DataArray  type="Float64"  Name="u"  NumberOfComponents="3" format="ascii">6.4464894912955278e-04 3.6594672761618870e-05 0.0000000000000000e+00  5.6092733310052548e-04 2.9152753198888792e-05 0.0000000000000000e+00  7.9616929026239572e-04 7.9329992627791458e-05 0.0000000000000000e+00  6.8222252744132685e-04 4.3516069841702295e-05 0.0000000000000000e+00  4.2573899980506735e-04 2.0587397544748522e-05 0.0000000000000000e+00  7.1496231903228678e-04 1.1476399639343717e-04 0.0000000000000000e+00  3.0753258195854506e-04 8.5414762454294063e-06 0.0000000000000000e+00  5.8315291486423502e-04 1.2877117016549909e-04 0.0000000000000000e+00  2.0409479401425762e-04 -3.6606288308948216e-08 0.0000000000000000e+00  4.3428973950694936e-04 1.3299951186986344e-04 0.0000000000000000e+00  1.1124806510992466e-04 -6.8827975747157440e-06 0.0000000000000000e+00  2.8072337805482342e-04 1.3206357754716162e-04 0.0000000000000000e+00  2.7798645488411752e-05 -1.1202302944710933e-05 0.0000000000000000e+00  1.2886504649488033e-04 1.2773933686329109e-04 0.0000000000000000e+00  -4.7635493678009450e-05 -1.3527564107447773e-05 0.0000000000000000e+00  -1.6844167002019212e-05 1.2097891072908770e-04 0.0000000000000000e+00  -1.1381290886627112e-04 -1.2820800180225463e-05 0.0000000000000000e+00  -1.5296662085809929e-04 1.1226303549916492e-04 0.0000000000000000e+00  -1.7245196463786181e-04 -1.1894997418992065e-05 0.0000000000000000e+00  -2.7691703269391312e-04 1.0180936341781129e-04 0.0000000000000000e+00  -2.2275620740777374e-04 -1.0240614930233090e-05 0.0000000000000000e+00  -3.8681229523912177e-04 8.9907456685591638e-05 0.0000000000000000e+00  -2.6439958554569810e-04 -7.4135689882560930e-06 0.0000000000000000e+00  -4.8129570113200078e-04 7.6915621075440607e-05 0.0000000000000000e+00  -2.9843724048207336e-04 -5.1019995999886149e-06 0.0000000000000000e+00  -5.5945934755164393e-04 6.3099271895641717e-05 0.0000000000000000e+00  -3.2386521960728879e-04 -2.3083892507450154e-06 0.0000000000000000e+00  -6.2068790455690917e-04 4.8765510094523280e-05 0.0000000000000000e+00  -3.4039762012234983e-04 1.2998923767640810e-06 0.0000000000000000e+00  -6.6460564291735886e-04 3.4089267530717304e-05 0.0000000000000000e+00  -3.4957718678894797e-04 3.7115272147954620e-06 0.0000000000000000e+00  -6.9110716056326944e-04 1.8982129189274247e-05 0.0000000000000000e+00  -3.5143522438961392e-04 5.4497990132845451e-06 0.0000000000000000e+00  -7.0021456052211874e-04 3.4138296544654815e-06 0.0000000000000000e+00  -3.4539183177682815e-04 6.6168170806959706e-06 0.0000000000000000e+00  -6.9193634302300744e-04 -1.2358527068361303e-05 0.0000000000000000e+00  -3.3086673765678133e-04 7.9342958672975135e-06 0.0000000000000000e+00  -6.6620943449138500e-04 -2.7861074970543001e-05 0.0000000000000000e+00  -3.0634156262105078e-04 1.2043608669086581e-05 0.0000000000000000e+00  -6.2294798513040032e-04 -4.3094344186292102e-05 0.0000000000000000e+00  -2.7594550400672881e-04 1.2309474295835666e-05 0.0000000000000000e+00  -5.6229251348177841e-04 -5.8339000197574438e-05 0.0000000000000000e+00  -2.3578817540935285e-04 1.2994230597172009e-05 0.0000000000000000e+00  -4.8458154134434537e-04 -7.3239881373867290e-05 0.0000000000000000e+00  -1.8571942361366760e-04 1.5438373962447181e-05 0.0000000000000000e+00  -3.9029952267779393e-04 -8.7554489831389448e-05 0.0000000000000000e+00  -1.2978098844688380e-04 1.3146254009077707e-05 0.0000000000000000e+00  -2.8040507758861924e-04 -1.0139704959347027e-04 0.0000000000000000e+00  -6.4293079572410038e-05 1.0322624431640596e-05 0.0000000000000000e+00  -1.5629629598906645e-04 -1.1417059324427765e-04 0.0000000000000000e+00  1.0790019721099370e-05 8.2587224957275888e-06 0.0000000000000000e+00  -1.9797169741383649e-05 -1.2536969523607613e-04 0.0000000000000000e+00  9.1626280702937843e-05 6.2703040233141525e-07 0.0000000000000000e+00  1.2658610742573122e-04 -1.3476460503057211e-04 0.0000000000000000e+00  1.8274993463778772e-04 -8.1508677914186612e-06 0.0000000000000000e+00  2.7981510450198041e-04 -1.4117121167009876e-04 0.0000000000000000e+00  2.8602154802862554e-04 -1.6017922079652628e-05 0.0000000000000000e+00  4.3636688617051402e-04 -1.4285509746568475e-04 0.0000000000000000e+00  4.0015380964177803e-04 -2.7078337558154091e-05 0.0000000000000000e+00  5.9121817391747961e-04 -1.3680697831386796e-04 0.0000000000000000e+00  5.2905004361954318e-04 -3.1193754062184863e-05 0.0000000000000000e+00  7.3254949199762784e-04 -1.1561902274257415e-04 0.0000000000000000e+00  6.4883679358737753e-04 -1.4448296024629803e-05 0.0000000000000000e+00  8.1468264690529491e-04 -6.7144785817491108e-05 0.0000000000000000e+00  7.0731069836127403e-04 -2.0279609218636496e-05 0.0000000000000000e+00  6.8457454811994838e-04 -2.3262531188691457e-05 0.0000000000000000e+00  9.1561650835031557e-04 1.3754179615433384e-04 0.0000000000000000e+00  7.3345586228887392e-04 5.8128753087316964e-05 0.0000000000000000e+00  8.4986745317916035e-04 2.2514188942868811e-04 0.0000000000000000e+00  7.1315788414529752e-04 2.7229647699512916e-04 0.0000000000000000e+00  5.4361767223520569e-04 2.9436903742254656e-04 0.0000000000000000e+00  3.5794513202824037e-04 3.0053533084061380e-04 0.0000000000000000e+00  1.6729302684160020e-04 2.9553524368031685e-04 0.0000000000000000e+00  -2.0186697259478057e-05 2.8217543780265336e-04 0.0000000000000000e+00  -1.9833908738966155e-04 2.6235507230107531e-04 0.0000000000000000e+00  -3.6251734387357038e-04 2.3755273336455382e-04 0.0000000000000000e+00  -5.0931177266776183e-04 2.0894922998881510e-04 0.0000000000000000e+00  -6.3630899107384694e-04 1.7757382132858258e-04 0.0000000000000000e+00  -7.4185634455218262e-04 1.4429798108167723e-04 0.0000000000000000e+00  -8.2487274567341466e-04 1.0976116648465355e-04 0.0000000000000000e+00  -8.8468717830858209e-04 7.4425007128704046e-05 0.0000000000000000e+00  -9.2092256940938728e-04 3.8568968529612543e-05 0.0000000000000000e+00  -9.3343425713195757e-04 2.3366170926668838e-06 0.0000000000000000e+00  -9.2224220158351798e-04 -3.4061557376091663e-05 0.0000000000000000e+00  -8.8741393053881569e-04 -7.0345001099910546e-05 0.0000000000000000e+00  -8.2900567299744484e-04 -1.0629344118559968e-04 0.0000000000000000e+00  -7.4728779615499958e-04 -1.4162272377762756e-04 0.0000000000000000e+00  -6.4290719316611338e-04 -1.7596139228674335e-04 0.0000000000000000e+00  -5.1686638199313043e-04 -2.0864085719567963e-04 0.0000000000000000e+00  -3.7076141114953829e-04 -2.3878740865649771e-04 0.0000000000000000e+00  -2.0700118934626998e-04 -2.6534373968422069e-04 0.0000000000000000e+00  -2.8841517779113832e-05 -2.8685092193326715e-04 0.0000000000000000e+00  1.5939746060116450e-04 -3.0148190107994339e-04 0.0000000000000000e+00  3.5216873043069123e-04 -3.0684586254376128e-04 0.0000000000000000e+00  5.4262076218409270e-04 -2.9928084182301784e-04 0.0000000000000000e+00  7.2142279585580985e-04 -2.7294318467298534e-04 0.0000000000000000e+00  8.7042200139095466e-04 -2.1840555830740833e-04 0.0000000000000000e+00  9.3241011479624678e-04 -1.2507024128153966e-04 0.0000000000000000e+00  7.1868653554804781e-04 -4.1301327284071287e-05 0.0000000000000000e+00  1.0188308986849820e-03 1.9949327969296404e-04 0.0000000000000000e+00  7.9969477634107779e-04 7.2017144125973998e-05 0.0000000000000000e+00  9.5053159972108422e-04 3.4064889593110110e-04 0.0000000000000000e+00  8.0050669046205069e-04 4.2988716340408811e-04 0.0000000000000000e+00  6.1254350317664445e-04 4.7840973520186267e-04 0.0000000000000000e+00  4.0368141734005035e-04 4.9757312266098127e-04 0.0000000000000000e+00  1.8625830937327197e-04 4.9497365561519398e-04 0.0000000000000000e+00  -2.9719213388442154e-05 4.7582826307210449e-04 0.0000000000000000e+00  -2.3636317403334640e-04 4.4402409816237331e-04 0.0000000000000000e+00  -4.2764885350541200e-04 4.0265347558222632e-04 0.0000000000000000e+00  -5.9914174661153809e-04 3.5421876932679531e-04 0.0000000000000000e+00  -7.4772135805614823e-04 3.0075549953919581e-04 0.0000000000000000e+00  -8.7128192138586529e-04 2.4389442188860980e-04 0.0000000000000000e+00  -9.6847274861664812e-04 1.8484382202886348e-04 0.0000000000000000e+00  -1.0384806354233546e-03 1.2445457508303471e-04 0.0000000000000000e+00  -1.0808596010048221e-03 6.3294142904878924e-05 0.0000000000000000e+00  -1.0954181237603881e-03 1.7086574936972336e-06 0.0000000000000000e+00  -1.0821314307544070e-03 -6.0027098195547349e-05 0.0000000000000000e+00  -1.0410626412565081e-03 -1.2160375523590156e-04 0.0000000000000000e+00  -9.7235160155906752e-04 -1.8262402582431495e-04 0.0000000000000000e+00  -8.7636118934810922e-04 -2.4249730257223988e-04 0.0000000000000000e+00  -7.5384046420308133e-04 -3.0040822485346842e-04 0.0000000000000000e+00  -6.0605227407344942e-04 -3.5513009307684939e-04 0.0000000000000000e+00  -4.3501340781188310e-04 -4.0494322028336718e-04 0.0000000000000000e+00  -2.4373992150203400e-04 -4.4770015473854683e-04 0.0000000000000000e+00  -3.6425051695959800e-05 -4.8064260786806468e-04 0.0000000000000000e+00  1.8134219790888530e-04 -5.0026684284563310e-04 0.0000000000000000e+00  4.0242327165218366e-04 -5.0218942679967329e-04 0.0000000000000000e+00  6.1799649037990552e-04 -4.8054986659873774e-04 0.0000000000000000e+00  8.1649604561112013e-04 -4.2726261316467450e-04 0.0000000000000000e+00  9.7701098181908865e-04 -3.3178763765223136e-04 0.0000000000000000e+00  1.0356964416929667e-03 -1.8663434831562564e-04 0.0000000000000000e+00  7.7476978069274561e-04 -5.5898841751321185e-05 0.0000000000000000e+00  1.1319727998689313e-03 2.6924883442088708e-04 0.0000000000000000e+00  8.8258918668454437e-04 8.9632152617286401e-05 0.0000000000000000e+00  1.0530080089715401e-03 4.6743277802473605e-04 0.0000000000000000e+00  8.8310760092318919e-04 6.0320218440055207e-04 0.0000000000000000e+00  6.7277924717242118e-04 6.8314547901962650e-04 0.0000000000000000e+00  4.4029785773646424e-04 7.1914426654982324e-04 0.0000000000000000e+00  1.9864889451452113e-04 7.2099931529207711e-04 0.0000000000000000e+00  -4.1273345760697474e-05 6.9641985282009567e-04 0.0000000000000000e+00  -2.7063972603006824e-04 6.5159710751307740e-04 0.0000000000000000e+00  -4.8265390747871635e-04 5.9159906564455874e-04 0.0000000000000000e+00  -6.7235508247333992e-04 5.2056837481122341e-04 0.0000000000000000e+00  -8.3632945501302630e-04 4.4183243143673830e-04 0.0000000000000000e+00  -9.7235883680124276e-04 3.5798151877238085e-04 0.0000000000000000e+00  -1.0791013149871877e-03 2.7092385265604360e-04 0.0000000000000000e+00  -1.1558208074825232e-03 1.8197885324935123e-04 0.0000000000000000e+00  -1.2021627766386485e-03 9.2001417796739468e-05 0.0000000000000000e+00  -1.2179907195588669e-03 1.5165568178781177e-06 0.0000000000000000e+00  -1.2032790214077901e-03 -8.9109996888033985e-05 0.0000000000000000e+00  -1.1580534519207747e-03 -1.7949789505000740e-04 0.0000000000000000e+00  -1.0824109283009327e-03 -2.6909831852695482e-04 0.0000000000000000e+00  -9.7663598099073201e-04 -3.5704129916125734e-04 0.0000000000000000e+00  -8.4138133912666630e-04 -4.4200541737672734e-04 0.0000000000000000e+00  -6.7787934136386506e-04 -5.2205289407106529e-04 0.0000000000000000e+00  -4.8821359053867393e-04 -5.9449772520260829e-04 0.0000000000000000e+00  -2.7561843966306945e-04 -6.5585362321847116e-04 0.0000000000000000e+00  -4.4750891564912680e-05 -7.0171795324167096e-04 0.0000000000000000e+00  1.9808280248088887e-04 -7.2663372156630125e-04 0.0000000000000000e+00  4.4478677007710123e-04 -7.2393340948990960e-04 0.0000000000000000e+00  6.8536352816439149e-04 -6.8540411559833052e-04 0.0000000000000000e+00  9.0688578242779699e-04 -6.0095388078316915e-04 0.0000000000000000e+00  1.0860701315427929e-03 -4.5918484937544011e-04 0.0000000000000000e+00  1.1502419199587157e-03 -2.5494823846359746e-04 0.0000000000000000e+00  8.4787245262746530e-04 -7.0344971358221359e-05 0.0000000000000000e+00  1.2690196117781530e-03 3.5029268285598881e-04 0.0000000000000000e+00  9.8641135120375182e-04 1.1223655112255917e-04 0.0000000000000000e+00  1.1749243119372821e-03 6.1260000233950298e-04 0.0000000000000000e+00  9.7925662054912919e-04 7.9835767401505208e-04 0.0000000000000000e+00  7.4092025810264597e-04 9.1195920187677598e-04 0.0000000000000000e+00  4.8076157594232537e-04 9.6590245421638698e-04 0.0000000000000000e+00  2.1289603991832617e-04 9.7208716074500016e-04 0.0000000000000000e+00  -5.1016919639459082e-05 9.4082353090890834e-04 0.0000000000000000e+00  -3.0159178413944026e-04 8.8087349497265521e-04 0.0000000000000000e+00  -5.3171267527745661e-04 7.9959453077759672e-04 0.0000000000000000e+00  -7.3633898560442621e-04 7.0304359338376745e-04 0.0000000000000000e+00  -9.1217744057776971e-04 5.9605666157630727e-04 0.0000000000000000e+00  -1.0572649098772237e-03 4.8233571650923164e-04 0.0000000000000000e+00  -1.1705791940694831e-03 3.6455725005574721e-04 0.0000000000000000e+00  -1.2517065111714476e-03 2.4451952109317784e-04 0.0000000000000000e+00  -1.3005604426161135e-03 1.2332894160617072e-04 0.0000000000000000e+00  -1.3171741024423161e-03 1.6127650355905636e-06 0.0000000000000000e+00  -1.3015703189240523e-03 -1.2024456422537368e-04 0.0000000000000000e+00  -1.2537103532839727e-03 -2.4185593662006945e-04 0.0000000000000000e+00  -1.1735217319581810e-03 -3.6259033571369890e-04 0.0000000000000000e+00  -1.0610245839946576e-03 -4.8134074068398173e-04 0.0000000000000000e+00  -9.1653500459282526e-04 -5.9630582735215759e-04 0.0000000000000000e+00  -7.4093595715148054e-04 -7.0477952524060816e-04 0.0000000000000000e+00  -5.3600818434232551e-04 -8.0297200647118697e-04 0.0000000000000000e+00  -3.0480038716400017e-04 -8.8588243690931488e-04 0.0000000000000000e+00  -5.1986873987819284e-05 -9.4718819916075924e-04 0.0000000000000000e+00  2.1585223414401656e-04 -9.7914375839158459e-04 0.0000000000000000e+00  4.9005740652412969e-04 -9.7249004545734872e-04 0.0000000000000000e+00  7.5973787889133690e-04 -9.1634897018102112e-04 0.0000000000000000e+00  1.0105313351156330e-03 -7.9827197310202130e-04 0.0000000000000000e+00  1.2156878642140066e-03 -6.0539413363814329e-04 0.0000000000000000e+00  1.2899897962249099e-03 -3.3384801303659392e-04 0.0000000000000000e+00  9.4100994473623491e-04 -8.8219877183665186e-05 0.0000000000000000e+00  1.4405328009994018e-03 4.4571273277438513e-04 0.0000000000000000e+00  1.1165342757253126e-03 1.4025553787562803e-04 0.0000000000000000e+00  1.3279149396516717e-03 7.8164392662015490e-04 0.0000000000000000e+00  1.1006340258173557e-03 1.0218697876426880e-03 0.0000000000000000e+00  8.2810500162335161e-04 1.1703604182024760e-03 0.0000000000000000e+00  5.3495325042629061e-04 1.2414644982538855e-03 0.0000000000000000e+00  2.3713400888230397e-04 1.2498210429616214e-03 0.0000000000000000e+00  -5.2724346713218362e-05 1.2088138973972375e-03 0.0000000000000000e+00  -3.2482417062482810e-04 1.1301959090940926e-03 0.0000000000000000e+00  -5.7205610827330518e-04 1.0239811533178378e-03 0.0000000000000000e+00  -7.8969853962572955e-04 8.9842247346149469e-04 0.0000000000000000e+00  -9.7498945946792876e-04 7.6005184146389062e-04 0.0000000000000000e+00  -1.1266039683999352e-03 6.1378121079426408e-04 0.0000000000000000e+00  -1.2441717462727180e-03 4.6306526496513319e-04 0.0000000000000000e+00  -1.3278670224419144e-03 3.1012217140987080e-04 0.0000000000000000e+00  -1.3780651255069669e-03 1.5620281471176271e-04 0.0000000000000000e+00  -1.3950900086283421e-03 1.8934918546651073e-06 0.0000000000000000e+00  -1.3790635365503920e-03 -1.5255957082100348e-04 0.0000000000000000e+00  -1.3298468751201547e-03 -3.0691493846731599e-04 0.0000000000000000e+00  -1.2470818079104748e-03 -4.6060173907873446e-04 0.0000000000000000e+00  -1.1303257014575229e-03 -6.1239108236593428e-04 0.0000000000000000e+00  -9.7929388737489818e-04 -7.6008209317286713e-04 0.0000000000000000e+00  -7.9418651869412509e-04 -9.0021064702839617e-04 0.0000000000000000e+00  -5.7609095200468897e-04 -1.0277978880803293e-03 0.0000000000000000e+00  -3.2744970701591326e-04 -1.1361572878553000e-03 0.0000000000000000e+00  -5.2532621504161467e-05 -1.2167607293723768e-03 0.0000000000000000e+00  2.4217797160612113e-04 -1.2591677349380181e-03 0.0000000000000000e+00  5.4770378482402952e-04 -1.2510195942612250e-03 0.0000000000000000e+00  8.5226066867964028e-04 -1.1781283210769787e-03 0.0000000000000000e+00  1.1395741075795713e-03 -1.0248206344086123e-03 0.0000000000000000e+00  1.3779483555470089e-03 -7.7559264305279393e-04 0.0000000000000000e+00  1.4655150611494437e-03 -4.2676561078287541e-04 0.0000000000000000e+00  1.0590270451442088e-03 -1.1079203120572833e-04 0.0000000000000000e+00  1.6565425775826779e-03 5.5855180329245839e-04 0.0000000000000000e+00  1.2788039174597696e-03 1.7414942018941591e-04 0.0000000000000000e+00  1.5223512916702308e-03 9.7970121062337392e-04 0.0000000000000000e+00  1.2574913523219554e-03 1.2799562164430450e-03 0.0000000000000000e+00  9.4456032968192282e-04 1.4642200241013995e-03 0.0000000000000000e+00  6.1309549567569268e-04 1.5503396753107108e-03 0.0000000000000000e+00  2.8153024767902876e-04 1.5569206392674236e-03 0.0000000000000000e+00  -3.6304798297648766e-05 1.5013162616246980e-03 0.0000000000000000e+00  -3.3029383965823373e-04 1.3989494123184518e-03 0.0000000000000000e+00  -5.9362969377121867e-04 1.2629837745132073e-03 0.0000000000000000e+00  -8.2230952019408368e-04 1.1041995585492159e-03 0.0000000000000000e+00  -1.0145314449243161e-03 9.3100484337293847e-04 0.0000000000000000e+00  -1.1700159965625635e-03 7.4957457274521825e-04 0.0000000000000000e+00  -1.2893974276426807e-03 5.6409002974917529e-04 0.0000000000000000e+00  -1.3737205502850052e-03 3.7705804512214039e-04 0.0000000000000000e+00  -1.4240276562609005e-03 1.8968797336276687e-04 0.0000000000000000e+00  -1.4410611338630047e-03 2.3046183774866831e-06 0.0000000000000000e+00  -1.4250883432569076e-03 -1.8522060212944577e-04 0.0000000000000000e+00  -1.3758398841999372e-03 -3.7302970903283281e-04 0.0000000000000000e+00  -1.2925494680699544e-03 -5.6083521893400730e-04 0.0000000000000000e+00  -1.1741148317760100e-03 -7.4748188598729951e-04 0.0000000000000000e+00  -1.0193695085222835e-03 -9.3051856710109598e-04 0.0000000000000000e+00  -8.2747446471785602e-04 -1.1057952814556311e-03 0.0000000000000000e+00  -5.9841024269572231e-04 -1.2671089328872105e-03 0.0000000000000000e+00  -3.3356229714717652e-04 -1.4059187194283189e-03 0.0000000000000000e+00  -3.6346796311760774e-05 -1.5111594804516786e-03 0.0000000000000000e+00  2.8722708400247119e-04 -1.5691648070668058e-03 0.0000000000000000e+00  6.2808402226890742e-04 -1.5637290256538200e-03 0.0000000000000000e+00  9.7350003130079418e-04 -1.4763337057068168e-03 0.0000000000000000e+00  1.3047683617271699e-03 -1.2867492502488082e-03 0.0000000000000000e+00  1.5836951705197886e-03 -9.7520840812030316e-04 0.0000000000000000e+00  1.6870663026616690e-03 -5.3698851996489153e-04 0.0000000000000000e+00  1.2074842188246279e-03 -1.3868196813005798e-04 0.0000000000000000e+00  1.9280572761932503e-03 6.9192686358665687e-04 0.0000000000000000e+00  1.4795632041470495e-03 2.1450643410730213e-04 0.0000000000000000e+00  1.7697080134729496e-03 1.2118368282198087e-03 0.0000000000000000e+00  1.4615116862526497e-03 1.5783920458314049e-03 0.0000000000000000e+00  1.1026261634991454e-03 1.7988276161937644e-03 0.0000000000000000e+00  7.2859441261882772e-04 1.8964675442095411e-03 0.0000000000000000e+00  3.6080881344031820e-04 1.8955502440902478e-03 0.0000000000000000e+00  1.4396552247600027e-05 1.8187017912193069e-03 0.0000000000000000e+00  -3.0038733791375492e-04 1.6859527244098814e-03 0.0000000000000000e+00  -5.7740676650946390e-04 1.5142678525980825e-03 0.0000000000000000e+00  -8.1383434491890251e-04 1.3173400081044101e-03 0.0000000000000000e+00  -1.0093051053600077e-03 1.1056301324731067e-03 0.0000000000000000e+00  -1.1650242647159150e-03 8.8658085353690737e-04 0.0000000000000000e+00  -1.2830037896115684e-03 6.6497776984807252e-04 0.0000000000000000e+00  -1.3654508791698440e-03 4.4340515709711506e-04 0.0000000000000000e+00  -1.4142830686102548e-03 2.2276282170615727e-04 0.0000000000000000e+00  -1.43078729