<?xml version="1.0"?>
<VTKFile type="UnstructuredGrid"  version="0.1"  >
<UnstructuredGrid>
<Piece  NumberOfPoints="825" NumberOfCells="1536">
<Points>
<DataArray  type="Float64"  NumberOfComponents="3"  format="ascii">-2.306173733883713e-22 0.5 0  0.0624999797082889 0.5000002811141873 0  0.06249963229101473 0.5625002900040834 0  -3.585003229186334e-07 0.5625000195140853 0  0.1249999197225673 0.5000005066296911 0  0.1249995982756393 0.5625004958941093 0  0.1874998244319496 0.500000680891865 0  0.1874995372713936 0.562500656220364 0  0.2499996993336218 0.5000008106257514 0  0.2499994509314389 0.5625007752463806 0  0.3124995495452093 0.5000008958979782 0  0.3124993409606874 0.5625008536051179 0  0.3749993659083666 0.5000009294142811 0  0.3749992086182818 0.5625008895257473 0  0.4374991496690533 0.5000009108400644 0  0.4374990562794159 0.5625008831086994 0  0.4999989120567042 0.5000008492071955 0  0.4999988892964513 0.5625008393797643 0  0.5624986711807819 0.5000007614931891 0  0.5624987161160143 0.5625007687286793 0  0.6249984504870679 0.5000006689549646 0  0.6249985464426687 0.56250068312371 0  0.6874982513459384 0.5000005723951416 0  0.6874983876403579 0.5625005883338805 0  0.7499980722588929 0.5000004683584395 0  0.749998243361847 0.5625004860455632 0  0.8124979178114932 0.5000003610394491 0  0.8124981161780467 0.562500378241354 0  0.8749977881153891 0.5000002502076589 0  0.8749980076649486 0.5625002652630415 0  0.9374976788003901 0.5000001309792851 0  0.9374979185105152 0.5625001466099164 0  0.9999975911187522 0.5000000056322816 0  0.9999978500797092 0.5625000233104234 0  1.062497534969488 0.4999998805086791 0  1.062497804170929 0.5624998977292779 0  1.124997510632191 0.4999997550065106 0  1.124997782196129 0.5624997728010434 0  1.187497518782023 0.4999996364015064 0  1.187497785101604 0.5624996513125388 0  1.249997554878955 0.4999995188265896 0  1.249997812708356 0.5624995333015326 0  1.312497623147587 0.4999994057191281 0  1.31249786403569 0.5624994207051882 0  1.374997721938562 0.4999993027078904 0  1.374997938650705 0.5624993164168877 0  1.437497846488867 0.499999204133224 0  1.43749803482084 0.5624992214838463 0  1.499998000811722 0.4999991142376849 0  1.499998149266902 0.5624991421143754 0  1.562498182189987 0.4999990576001125 0  1.562498279729108 0.5624990903468162 0  1.624998385124056 0.4999990473363377 0  1.624998424671084 0.5624990752768191 0  1.687498613075873 0.4999990866811379 0  1.687498581759264 0.5624991020209654 0  1.749998861909801 0.4999991785386193 0  1.749998747538969 0.5624991726849905 0  1.812499125239483 0.4999993161580148 0  1.812498915630941 0.5624992866729374 0  1.874999406157606 0.4999995017218513 0  1.874999074906945 0.5624994472066723 0  1.937499702377699 0.4999997349893662 0  1.937499202159463 0.5624996708344844 0  2 0.5 0  1.999999240459148 0.5625000651632336 0  0.06249937057481335 0.6250003213772012 0  -6.275742707001946e-07 0.625000109025647 0  0.124999353376371 0.6250004981836181 0  0.187499316521885 0.6250006393603521 0  0.2499992597599603 0.6250007455844708 0  0.3124991842764769 0.6250008164449212 0  0.3749990917435922 0.625000851120226 0  0.4374989843467056 0.6250008500443127 0  0.4999988653443901 0.6250008166431339 0  0.5624987394286874 0.6250007575177045 0  0.6249986124556771 0.6250006803022704 0  0.6874984900876369 0.625000590640864 0  0.7499983765204621 0.6250004917660107 0  0.8124982747502776 0.6250003857432919 0  0.8749981869665526 0.6250002737556722 0  0.9374981146448562 0.625000156510822 0  0.9999980588961113 0.6250000351253951 0  1.062498020714829 0.6249999115460035 0  1.124998000948648 0.6249997882458355 0  1.187498000191643 0.6249996674024474 0  1.249998018365346 0.6249995506194714 0  1.312498054660868 0.6249994398793929 0  1.374998107936846 0.6249993377084367 0  1.437498176173344 0.6249992471810633 0  1.499998256468284 0.6249991736781737 0  1.562498346231464 0.6249991246681942 0  1.624998443233581 0.6249991068658479 0  1.687498544583841 0.6249991248184203 0  1.749998645867316 0.624999181036295 0  1.812498739811284 0.6249992772671032 0  1.874998814928565 0.6249994179850255 0  1.937498855992872 0.624999615586227 0  1.999998862420934 0.6249998739747816 0  0.06249918175236717 0.6875003666551244 0  -8.176915986057501e-07 0.6875002095455088 0  0.1249991732212864 0.6875005092728504 0  0.1874991520293496 0.6875006280551234 0  0.249999116551613 0.6875007193592068 0  0.312499066933431 0.6875007811590821 0  0.3749990041618189 0.6875008123505172 0  0.4374989297378221 0.6875008132109891 0  0.4999988457833735 0.687500786048689 0  0.5624987552705328 0.6875007351439325 0  0.6249986619814069 0.687500665638904 0  0.6874985699413525 0.6875005820977508 0  0.7499984827217004 0.6875004878878568 0  0.812498403197298 0.6875003853735573 0  0.8749983335734157 0.6875002762218744 0  0.9374982754358605 0.6875001617582416 0  0.9999982298815034 0.6875000434220708 0  1.062498197686648 0.6874999230429194 0  1.124998179401394 0.687499802744986 0  1.187498175291441 0.6874996846358894 0  1.249998185138906 0.6874995707350737 0  1.31249820815525 0.6874994632556121 0  1.37499824302122 0.6874993648457365 0  1.437498287795987 0.6874992788645551 0  1.499998340063205 0.6874992097986276 0  1.562498397384111 0.6874991629385443 0  1.624998457340116 0.6874991432196308 0  1.687498517059227 0.6874991543333352 0  1.749998572657206 0.6874991985888225 0  1.812498618873382 0.6874992773986262 0  1.874998649773101 0.6874993916789592 0  1.937498662566374 0.6874995384615166 0  1.999998664390657 0.6874996927265763 0  0.06249905103638161 0.7500004182973284 0  -9.48786516813632e-07 0.7500003068802551 0  0.1249990468546055 0.7500005274425174 0  0.1874990352081257 0.7500006226755157 0  0.2499990140904423 0.7500006977649134 0  0.3124989828504757 0.7500007492351737 0  0.3749989417081769 0.7500007753170442 0  0.4374988914555031 0.750000775777091 0  0.4999988334149496 0.7500007519857603 0  0.5624987695179691 0.7500007067191022 0  0.6249987022772561 0.7500006435210275 0  0.6874986345168778 0.7500005659155592 0  0.7499985689881605 0.7500004769114491 0  0.8124985081010265 0.7500003789058449 0  0.8749984538069311 0.7500002738108046 0  0.9374984075717168 0.7500001632809349 0  0.9999983704202131 0.750000048971576 0  1.06249834302434 0.7499999327078211 0  1.124998325767651 0.749999816486324 0  1.187498318726337 0.7499997023837363 0  1.249998321583405 0.7499995925418418 0  1.312498333568284 0.7499994892836047 0  1.374998353450843 0.7499993952704653 0  1.43749837956992 0.7499993136565802 0  1.499998409972151 0.7499992481427022 0  1.562498442619829 0.7499992026887681 0  1.624998475444366 0.7499991809014133 0  1.687498506205051 0.7499991854417764 0  1.749998532370951 0.7499992176486897 0  1.812498551364923 0.7499992771467504 0  1.874998561636279 0.7499993605189043 0  1.937498564604281 0.7499994570836681 0  1.999998565009242 0.7499995404909564 0  0.0624989649957477 0.8125004708170752 0  -1.034996851449057e-06 0.8125003961120005 0  0.124998963135845 0.81250055003496 0  0.187498957203578 0.8125006225170507 0  0.249998945416242 0.8125006811421935 0  0.3124989267751844 0.8125007215571499 0  0.3749989009689159 0.8125007413604499 0  0.4374988682262487 0.8125007397334449 0  0.4999988292602144 0.8125007172559312 0  0.5624987852722092 0.812500675649464 0  0.62499873791225 0.8125006173522127 0  0.687498689126088 0.8125005450323799 0  0.7499986409270223 0.8125004612236841 0  0.8124985951867898 0.8125003681672075 0  0.8749985534968455 0.8125002678231951 0  0.93749851710195 0.8125001619819602 0  0.9999984868946886 0.8125000524051459 0  1.062498463447466 0.8124999409299734 0  1.124998447042828 0.8124998295010579 0  1.187498437669914 0.8124997201583251 0  1.24999843499226 0.8124996150447235 0  1.31249843832353 0.8124995164607483 0  1.374998446637649 0.8124994269375547 0  1.437498458625271 0.812499349279976 0  1.499998472807259 0.8124992865042087 0  1.562498487669438 0.8124992415896264 0  1.624998501747121 0.8124992170593782 0  1.68749851366144 0.8124992144924765 0  1.749998522222482 0.8124992339917153 0  1.812498526757946 0.8124992733990385 0  1.874998527702813 0.8124993267738715 0  1.937498526968855 0.8124993817248096 0  1.999998526822617 0.8124994164075404 0  0.06249891319414533 0.8750005210288365 0  -1.086885408733404e-06 0.8750004754484214 0  0.1249989126138536 0.8750005746536937 0  0.1874989100776955 0.8750006263704477 0  0.2499989042109022 0.8750006691718315 0  0.3124988939816838 0.8750006983925059 0  0.3749988788063345 0.8750007112153367 0  0.437498858535715 0.8750007063295977 0  0.4999988334350973 0.8750006836834384 0  0.562498804172197 0.8750006442258762 0  0.6249987717769692 0.875000589591387 0  0.6874987375426803 0.87500052176706 0  0.7499987028799342 0.8750004428224589 0  0.8124986691653256 0.8750003547534351 0  0.8749986376206115 0.8750002594382713 0  0.9374986092374686 0.8750001586717231 0  0.9999985847465143 0.8750000542322032 0  1.062498564616881 0.8749999479413182 0  1.124998549064875 0.8749998416945576 0  1.187498538054867 0.8749997374703922 0  1.249998531292898 0.8749996373398766 0  1.312498528228702 0.8749995434864293 0  1.374998528082839 0.8749994582207764 0  1.437498529908683 0.8749993839573708 0  1.49999853268814 0.8749993231080087 0  1.562498535441621 0.8749992778575315 0  1.624998537328032 0.8749992498220446 0  1.687498537740465 0.8749992396110017 0  1.74999853643806 0.874999246273829 0  1.81249853373493 0.8749992665277211 0  1.874998530634181 0.8749992936457103 0  1.937498528551782 0.8749993161610949 0  1.999998528220087 0.8749993171422039 0  0.06249888761379981 0.9375005672509096 0  -1.112511445906135e-06 0.9375005446030134 0  0.1249988877365062 0.9375005995222292 0  0.1874988871898876 0.9375006329674583 0  0.2499988849994202 0.9375006611736044 0  0.3124988802540943 0.9375006795609828 0  0.3749988722833487 0.9375006851384069 0  0.4374988607220255 0.9375006762607053 0  0.4999988455304361 0.9375006524079204 0  0.5624988269927707 0.9375006139601541 0  0.6249988056878173 0.9375005619536466 0  0.6874987824225957 0.9375004978369
[...]
<PointData  Vectors="u"> 
<DataArray  type="Float64"  Name="u"  NumberOfComponents="3" format="ascii">1.3251104595892620e-22 2.0821157441727801e-22 0.0000000000000000e+00  -3.6787004122902253e-07 4.3261405384074773e-06 0.0000000000000000e+00  1.7312109994155350e-04 2.8315936817293915e-05 0.0000000000000000e+00  0.0000000000000000e+00 0.0000000000000000e+00 0.0000000000000000e+00  -1.3988028974508382e-06 7.6066041375251098e-06 0.0000000000000000e+00  1.8795574210423658e-04 4.3506538725404151e-05 0.0000000000000000e+00  -2.9867857303896225e-06 9.9106635209620715e-06 0.0000000000000000e+00  1.5676288957261272e-04 4.7472258101470923e-05 0.0000000000000000e+00  -4.9742575451266581e-06 1.1513064321986027e-05 0.0000000000000000e+00  1.1789807791627225e-04 4.6664790847456301e-05 0.0000000000000000e+00  -7.2917944673309152e-06 1.2337918236332492e-05 0.0000000000000000e+00  7.8326101997024103e-05 4.3877155801854972e-05 0.0000000000000000e+00  -1.0086550290871176e-05 1.2381139052981530e-05 0.0000000000000000e+00  4.0151765734144280e-05 4.0289328183957881e-05 0.0000000000000000e+00  -1.3213537592682576e-05 1.1855765807647098e-05 0.0000000000000000e+00  4.3324770288498465e-06 3.6297731070886169e-05 0.0000000000000000e+00  -1.6507954288012123e-05 1.0911089534198675e-05 0.0000000000000000e+00  -2.8531590668783678e-05 3.2157665313616019e-05 0.0000000000000000e+00  -1.9739063751631637e-05 9.7876094776783714e-06 0.0000000000000000e+00  -5.8030773964679650e-05 2.8028672897708738e-05 0.0000000000000000e+00  -2.2651639833744527e-05 8.7007229149388669e-06 0.0000000000000000e+00  -8.3899477195502315e-05 2.3980581336869987e-05 0.0000000000000000e+00  -2.5241771248967879e-05 7.6676037610381534e-06 0.0000000000000000e+00  -1.0596900503207235e-04 2.0043430903440124e-05 0.0000000000000000e+00  -2.7561636302868681e-05 6.6070611244646652e-06 0.0000000000000000e+00  -1.2416418374635712e-04 1.6181678371487073e-05 0.0000000000000000e+00  -2.9604916718944536e-05 5.4929954310713183e-06 0.0000000000000000e+00  -1.3842350428540042e-04 1.2385165650994025e-05 0.0000000000000000e+00  -3.1378761347680853e-05 4.3279855062215165e-06 0.0000000000000000e+00  -1.4867676211458643e-04 8.6909834316954530e-06 0.0000000000000000e+00  -3.2982324824642143e-05 2.9965894389109833e-06 0.0000000000000000e+00  -1.5490044312297755e-04 5.0862828424166412e-06 0.0000000000000000e+00  -3.4429749076921190e-05 1.4761588505616419e-06 0.0000000000000000e+00  -1.5713831515115227e-04 1.4071695406346046e-06 0.0000000000000000e+00  -3.5462702965669121e-05 -6.4976734813471465e-08 0.0000000000000000e+00  -1.5540307081324140e-04 -2.4386757773694272e-06 0.0000000000000000e+00  -3.6111024217801294e-05 -1.6980835689743939e-06 0.0000000000000000e+00  -1.4965664818776547e-04 -6.3865273141907810e-06 0.0000000000000000e+00  -3.6314764695371239e-05 -3.2517878568015197e-06 0.0000000000000000e+00  -1.3989044915722039e-04 -1.0433497746032972e-05 0.0000000000000000e+00  -3.6187140819955724e-05 -4.9177315945938256e-06 0.0000000000000000e+00  -1.2616690569994558e-04 -1.4645318897160353e-05 0.0000000000000000e+00  -3.5629777821940443e-05 -6.6489449505827119e-06 0.0000000000000000e+00  -1.0850504767205832e-04 -1.8991655732216713e-05 0.0000000000000000e+00  -3.4622250289571615e-05 -8.3206856736479936e-06 0.0000000000000000e+00  -8.6922055362309130e-05 -2.3426057000026307e-05 0.0000000000000000e+00  -3.3263388680307120e-05 -1.0120928877424628e-05 0.0000000000000000e+00  -6.1536612228580659e-05 -2.8010978839986104e-05 0.0000000000000000e+00  -3.1450870017724475e-05 -1.2012525651367402e-05 0.0000000000000000e+00  -3.2435407515572316e-05 -3.2680747555676526e-05 0.0000000000000000e+00  -2.9159236695361099e-05 -1.3482006578499233e-05 0.0000000000000000e+00  2.6466144083176610e-07 -3.7293256372009095e-05 0.0000000000000000e+00  -2.6490917107618118e-05 -1.4296250285068561e-05 0.0000000000000000e+00  3.6307833322340409e-05 -4.1742357109658116e-05 0.0000000000000000e+00  -2.3342491473719863e-05 -1.4352493983160796e-05 0.0000000000000000e+00  7.5408037960861892e-05 -4.5712146677060409e-05 0.0000000000000000e+00  -1.9680575640691521e-05 -1.3456592549517130e-05 0.0000000000000000e+00  1.1702230162504772e-04 -4.8545788933476867e-05 0.0000000000000000e+00  -1.5601791740874297e-05 -1.1718889856382391e-05 0.0000000000000000e+00  1.5935387384613699e-04 -4.8840361007895378e-05 0.0000000000000000e+00  -1.0994288887478084e-05 -9.0164546428457315e-06 0.0000000000000000e+00  1.9479106501278580e-04 -4.3198433883496503e-05 0.0000000000000000e+00  -5.7473916778191431e-06 -5.0774463740579537e-06 0.0000000000000000e+00  1.8707328146484582e-04 -2.5036449962386736e-05 0.0000000000000000e+00  -3.3332200030508773e-22 6.4736652221414750e-22 0.0000000000000000e+00  0.0000000000000000e+00 0.0000000000000000e+00 0.0000000000000000e+00  2.5155406520292923e-04 4.7461978717305962e-05 0.0000000000000000e+00  0.0000000000000000e+00 0.0000000000000000e+00 0.0000000000000000e+00  2.7178082725762390e-04 7.7992079809385454e-05 0.0000000000000000e+00  2.4061510927462886e-04 8.9758157416433584e-05 0.0000000000000000e+00  1.9382654307082385e-04 9.1681174798164934e-05 0.0000000000000000e+00  1.4205241029169140e-04 8.8625836173966750e-05 0.0000000000000000e+00  8.9537326915728653e-05 8.3056380926777615e-05 0.0000000000000000e+00  3.8542404256389307e-05 7.6148649500906078e-05 0.0000000000000000e+00  -9.4586729231392047e-06 6.8501620989074453e-05 0.0000000000000000e+00  -5.3422579944716529e-05 6.0445735490356852e-05 0.0000000000000000e+00  -9.2610437210903938e-05 5.2150355465458562e-05 0.0000000000000000e+00  -1.2648683663097891e-04 4.3715119751431492e-05 0.0000000000000000e+00  -1.5466685191999931e-04 3.5190335391842771e-05 0.0000000000000000e+00  -1.7687309569231608e-04 2.6608986406937281e-05 0.0000000000000000e+00  -1.9289874462230817e-04 1.8011618909590625e-05 0.0000000000000000e+00  -2.0260793269620032e-04 9.4165373770682377e-06 0.0000000000000000e+00  -2.0594392416901298e-04 7.8802589011817276e-07 0.0000000000000000e+00  -2.0291240727563921e-04 -7.9268283239390449e-06 0.0000000000000000e+00  -1.9354093751074289e-04 -1.6708469514161552e-05 0.0000000000000000e+00  -1.7790048238957432e-04 -2.5528743930798664e-05 0.0000000000000000e+00  -1.5612484592149553e-04 -3.4368125387794928e-05 0.0000000000000000e+00  -1.2841776892474584e-04 -4.3195552149319202e-05 0.0000000000000000e+00  -9.5041814437341000e-05 -5.1938695189471679e-05 0.0000000000000000e+00  -5.6372158395996970e-05 -6.0533472774466275e-05 0.0000000000000000e+00  -1.2908144082943378e-05 -6.8865295978838618e-05 0.0000000000000000e+00  3.4710273141807029e-05 -7.6709015291061833e-05 0.0000000000000000e+00  8.5620953421912177e-05 -8.3707332363097076e-05 0.0000000000000000e+00  1.3868001116261859e-04 -8.9173964287763647e-05 0.0000000000000000e+00  1.9224973974602116e-04 -9.1741643213814650e-05 0.0000000000000000e+00  2.4304792386880354e-04 -8.8789427688247021e-05 0.0000000000000000e+00  2.8028642269933894e-04 -7.5433863713933078e-05 0.0000000000000000e+00  2.5725467110271214e-04 -4.4327529646881262e-05 0.0000000000000000e+00  0.0000000000000000e+00 0.0000000000000000e+00 0.0000000000000000e+00  2.9090846110113995e-04 6.1995581177440529e-05 0.0000000000000000e+00  0.0000000000000000e+00 0.0000000000000000e+00 0.0000000000000000e+00  3.2305969495814805e-04 1.0765096812896743e-04 0.0000000000000000e+00  2.9404489452822963e-04 1.3109976954957223e-04 0.0000000000000000e+00  2.4754630177221818e-04 1.4009326775448296e-04 0.0000000000000000e+00  1.9387460351273934e-04 1.4030558597030127e-04 0.0000000000000000e+00  1.3728944614672825e-04 1.3515696314473884e-04 0.0000000000000000e+00  8.0624647395529335e-05 1.2663806334062866e-04 0.0000000000000000e+00  2.5984034264654516e-05 1.1591204022839658e-04 0.0000000000000000e+00  -2.5028281202350198e-05 1.0368466862889743e-04 0.0000000000000000e+00  -7.1191802720348691e-05 9.0399242137354817e-05 0.0000000000000000e+00  -1.1157823715711565e-04 7.6348246669603913e-05 0.0000000000000000e+00  -1.4548291199303841e-04 6.1738500488854635e-05 0.0000000000000000e+00  -1.7238148209146808e-04 4.6724952534941204e-05 0.0000000000000000e+00  -1.9189416375321654e-04 3.1432896895989762e-05 0.0000000000000000e+00  -2.0376453885795299e-04 1.5963452285667515e-05 0.0000000000000000e+00  -2.0785132323727527e-04 3.9138507533607063e-07 0.0000000000000000e+00  -2.0411963169420725e-04 -1.5219583591206604e-05 0.0000000000000000e+00  -1.9262793992802781e-04 -3.0789749099117039e-05 0.0000000000000000e+00  -1.7352652357249988e-04 -4.6218544518797155e-05 0.0000000000000000e+00  -1.4707198915343836e-04 -6.1390947427353225e-05 0.0000000000000000e+00  -1.1364428182788708e-04 -7.6170946121696624e-05 0.0000000000000000e+00  -7.3759928008081238e-05 -9.0381598170651033e-05 0.0000000000000000e+00  -2.8102236296382976e-05 -1.0378871192420884e-04 0.0000000000000000e+00  2.2442304622396531e-05 -1.1606937822821547e-04 0.0000000000000000e+00  7.6751582693268864e-05 -1.2673647154268192e-04 0.0000000000000000e+00  1.3342061632961127e-04 -1.3502780352301277e-04 0.0000000000000000e+00  1.9071228466588280e-04 -1.3970736127574558e-04 0.0000000000000000e+00  2.4640025326498811e-04 -1.3871879159396583e-04 0.0000000000000000e+00  2.9672547594377811e-04 -1.2870174374073192e-04 0.0000000000000000e+00  3.3024683808324345e-04 -1.0452327618213248e-04 0.0000000000000000e+00  2.9659969728139515e-04 -6.0017431629829729e-05 0.0000000000000000e+00  0.0000000000000000e+00 0.0000000000000000e+00 0.0000000000000000e+00  3.2232564825065383e-04 7.4707298893305005e-05 0.0000000000000000e+00  0.0000000000000000e+00 0.0000000000000000e+00 0.0000000000000000e+00  3.6264254239652639e-04 1.3336909376121059e-04 0.0000000000000000e+00  3.3703807251807657e-04 1.6895703638470345e-04 0.0000000000000000e+00  2.9372424842974242e-04 1.8695705173843653e-04 0.0000000000000000e+00  2.4265017943380209e-04 1.9266505231785861e-04 0.0000000000000000e+00  1.8758817479814594e-04 1.8988560008719040e-04 0.0000000000000000e+00  1.3122553616959698e-04 1.8117823738472331e-04 0.0000000000000000e+00  7.5822657756524723e-05 1.6824180699095495e-04 0.0000000000000000e+00  2.3263149647168200e-05 1.5221985730527564e-04 0.0000000000000000e+00  -2.4926258204241847e-05 1.3390432419029737e-04 0.0000000000000000e+00  -6.7528361147407398e-05 1.1386514131365190e-04 0.0000000000000000e+00  -1.0358767994286850e-04 9.2532062061539272e-05 0.0000000000000000e+00  -1.3237483368258398e-04 7.0243923192111013e-05 0.0000000000000000e+00  -1.5335435350375149e-04 4.7280139351666390e-05 0.0000000000000000e+00  -1.6615992350108616e-04 2.3879982189218408e-05 0.0000000000000000e+00  -1.7058026720274846e-04 2.5620900717072488e-07 0.0000000000000000e+00  -1.6655051834732211e-04 -2.3389872187953702e-05 0.0000000000000000e+00  -1.5414697587743008e-04 -4.6851733603026602e-05 0.0000000000000000e+00  -1.3358603496406262e-04 -6.9903900097633849e-05 0.0000000000000000e+00  -1.0523448201918825e-04 -9.2292371100618500e-05 0.0000000000000000e+00  -6.9624623055138403e-05 -1.1372162914233050e-04 0.0000000000000000e+00  -2.7474510335432091e-05 -1.3383199240917581e-04 0.0000000000000000e+00  2.0287722407538070e-05 -1.5216658525815056e-04 0.0000000000000000e+00  7.2497983506768113e-05 -1.6812364861649317e-04 0.0000000000000000e+00  1.2773360566323855e-04 -1.8087448127000088e-04 0.0000000000000000e+00  1.8430659493774546e-04 -1.8923616401710563e-04 0.0000000000000000e+00  2.4028382270040893e-04 -1.9148476575058697e-04 0.0000000000000000e+00  2.9342703783751163e-04 -1.8509681470232943e-04 0.0000000000000000e+00  3.4023541273744289e-04 -1.6647305705180061e-04 0.0000000000000000e+00  3.6942721870971795e-04 -1.3086810068365566e-04 0.0000000000000000e+00  3.2766370880463717e-04 -7.3480724766323462e-05 0.0000000000000000e+00  0.0000000000000000e+00 0.0000000000000000e+00 0.0000000000000000e+00  3.5143387942512057e-04 8.5904880578181251e-05 0.0000000000000000e+00  0.0000000000000000e+00 0.0000000000000000e+00 0.0000000000000000e+00  3.9902524269682760e-04 1.5580946546188979e-04 0.0000000000000000e+00  3.7767128808408274e-04 2.0233624286277474e-04 0.0000000000000000e+00  3.3924462464508457e-04 2.2934913515199715e-04 0.0000000000000000e+00  2.9361141781088132e-04 2.4134992957520386e-04 0.0000000000000000e+00  2.4381327718832950e-04 2.4205399478183936e-04 0.0000000000000000e+00  1.9205910171305880e-04 2.3427343251034978e-04 0.0000000000000000e+00  1.4041095988271541e-04 2.2007530566506983e-04 0.0000000000000000e+00  9.0741311463747186e-05 2.0097663342559527e-04 0.0000000000000000e+00  4.4667834040070173e-05 1.7810856232071455e-04 0.0000000000000000e+00  3.5424720980906920e-06 1.5233680460931850e-04 0.0000000000000000e+00  -3.1536572177360685e-05 1.2434571558120593e-04 0.0000000000000000e+00  -5.9709127776004167e-05 9.4695576410253431e-05 0.0000000000000000e+00  -8.0331791801900427e-05 6.3861319089964281e-05 0.0000000000000000e+00  -9.2957943965533125e-05 3.2261048681051942e-05 0.0000000000000000e+00  -9.7325261574286192e-05 2.7760737023500834e-07 0.0000000000000000e+00  -9.3348931452942406e-05 -3.1721745799231247e-05 0.0000000000000000e+00  -8.1117784832952469e-05 -6.3366489987518647e-05 0.0000000000000000e+00  -6.0895766382282179e-05 -9.4264848742659518e-05 0.0000000000000000e+00  -3.3127109895474593e-05 -1.2398581795052988e-04 0.0000000000000000e+00  1.5508262917430993e-06 -1.5203809240527672e-04 0.0000000000000000e+00  4.2292951449351699e-05 -1.7784192817065609e-04 0.0000000000000000e+00  8.8032925878635764e-05 -2.0068969547560562e-04 0.0000000000000000e+00  1.3747575402675471e-04 -2.1969046611908756e-04 0.0000000000000000e+00  1.8910415966642784e-04 -2.3368964310363163e-04 0.0000000000000000e+00  2.4121913649442271e-04 -2.4115647848594018e-04 0.0000000000000000e+00  2.9202922490840491e-04 -2.4003988610510660e-04 0.0000000000000000e+00  3.3966236773086330e-04 -2.2761101115506072e-04 0.0000000000000000e+00  3.8119977192397573e-04 -2.0035807941543797e-04 0.0000000000000000e+00  4.0560636415184733e-04 -1.5411435268729740e-04 0.0000000000000000e+00  3.5631893338601567e-04 -8.5162402825793415e-05 0.0000000000000000e+00  0.0000000000000000e+00 0.0000000000000000e+00 0.0000000000000000e+00  3.7996312849366268e-04 9.5225407633124179e-05 0.0000000000000000e+00  0.0000000000000000e+00 0.0000000000000000e+00 0.0000000000000000e+00  4.3533177552433579e-04 1.7446979996096977e-04 0.0000000000000000e+00  4.1929422153036427e-04 2.3014758590459531e-04 0.0000000000000000e+00  3.8739930427666145e-04 2.6515143783056985e-04 0.0000000000000000e+00  3.4945279777683167e-04 2.8323520509378311e-04 0.0000000000000000e+00  3.0778293805506558e-04 2.8780057060375224e-04 0.0000000000000000e+00  2.6396933382666045e-04 2.8165987623577856e-04 0.0000000000000000e+00  2.1965576720518097e-04 2.6705367878169378e-04 0.0000000000000000e+00  1.7648381701778316e-04 2.4574826063787847e-04 0.0000000000000000e+00  1.3597136560597865e-04 2.1914414261130867e-04 0.0000000000000000e+00  9.9451874093425862e-05 1.8837041146619300e-04 0.0000000000000000e+00  6.8049439589105553e-05 1.5435863400450252e-04 0.0000000000000000e+00  4.2669213895419478e-05 1.1789766392884972e-04 0.0000000000000000e+00  2.4002587049453128e-05 7.9675174468440141e-05 0.0000000000000000e+00  1.2536899960588414e-05 4.0309149112601325e-05 0.0000000000000000e+00  8.5619994497440773e-06 3.7452730638079179e-07 0.0000000000000000e+00  1.2173966749816395e-05 -3.9573478173010026e-05 0.0000000000000000e+00  2.3276475189718448e-05 -7.8977140999188155e-05 0.0000000000000000e+00  4.1581486369139178e-05 -1.1725423664511016e-04 0.0000000000000000e+00  6.6605514699248964e-05 -1.5377535435904505e-04 0.0000000000000000e+00  9.7665872816356077e-05 -1.8783859905904896e-04 0.0000000000000000e+00  1.3387404600980764e-04 -2.1863815860645509e-04 0.0000000000000000e+00  1.7413758790579755e-04 -2.4522447461157269e-04 0.0000000000000000e+00  2.1717793110318271e-04 -2.6645178009907216e-04 0.0000000000000000e+00  2.6156738486633264e-04 -2.8090934947258567e-04 0.0000000000000000e+00  3.0581146594818690e-04 -2.8683623360284887e-04 0.0000000000000000e+00  3.4848925328119723e-04 -2.8202766480379173e-04 0.0000000000000000e+00  3.8829698744302887e-04 -2.6375727807407103e-04 0.0000000000000000e+00  4.2299895354402277e-04 -2.2876927245747014e-04 0.0000000000000000e+00  4.4173929147698618e-04 -1.7346133722193408e-04 0.0000000000000000e+00  3.8454577922827243e-04 -9.4868915881603415e-05 0.0000000000000000e+00  0.0000000000000000e+00 0.0000000000000000e+00 0.0000000000000000e+00  4.0857810358473128e-04 1.0208069499791341e-04 0.0000000000000000e+00  0.0000000000000000e+00 0.0000000000000000e+00 0.0000000000000000e+00  4.7259089529030072e-04 1.8835254710849498e-04 0.0000000000000000e+00  4.6313603677751257e-04 2.5105267610160361e-04 0.0000000000000000e+00  4.3936636892176191e-04 2.9250402823231272e-04 0.0000000000000000e+00  4.1105012044617071e-04 3.1587037618839223e-04 0.0000000000000000e+00  3.7982382609471840e-04 3.2416786368723500e-04 0.0000000000000000e+00  3.4657867446869097e-04 3.2004711837096977e-04 0.0000000000000000e+00  3.1242116104717197e-04 3.0575552105961294e-04 0.0000000000000000e+00  2.7861617661510576e-04 2.8317173326757126e-04 0.0000000000000000e+00  2.4643759386942094e-04 2.5386731923073561e-04 0.0000000000000000e+00  2.1707270214678739e-04 2.1917052959632440e-04 0.0000000000000000e+00  1.9156623888560767e-04 1.8022177461387274e-04 0.0000000000000000e+00  1.7078639391884963e-04 1.3801998608456233e-04 0.0000000000000000e+00  1.5541181143875657e-04 9.3459276991410332e-05 0.0000000000000000e+00  1.4592906723376596e-04 4.7360188100193028e-05 0.0000000000000000e+00  1.4263107690995900e-04 4.9641462560194749e-07 0.0000000000000000e+00  1.4561592140618289e-04 -4.6380111299658122e-05 0.0000000000000000e+00  1.5478736293254611e-04 -9.2515289468422340e-05 0.0000000000000000e+00  1.6985513123005802e-04 -1.3712916995222511e-04 0.0000000000000000e+00  1.9033837881126978e-04 -1.7939160144467818e-04 0.0000000000000000e+00  2.1556688601700628e-04 -2.1839608633938512e-04 0.0000000000000000e+00  2.4468867203063314e-04 -2.5313028549187126e-04 0.0000000000000000e+00  2.7668813065712637e-04 -2.8244038745195085e-04 0.0000000000000000e+00  3.1042556594277964e-04 -3.0498866392936398e-04 0.0000000000000000e+00  3.4470491006255975e-04 -3.1920261751349697e-04 0.0000000000000000e+00  3.7838679186628563e-04 -3.2321842484657058e-04 0.0000000000000000e+00  4.1055619578527782e-04 -3.1482884011710101e-04 0.0000000000000000e+00  4.4057169091751353e-04 -2.9145481914648189e-04 0.0000000000000000e+00  4.6690760259915267e-04 -2.5017328897059568e-04 0.0000000000000000e+00  4.7884824161301435e-04 -1.8787690562419851e-04 0.0000000000000000e+00  4.1299074472576756e-04 -1.0209772728021746e-04 0.0000000000000000e+00  0.0000000000000000e+00 0.0000000000000000e+00 0.0000000000000000e+00  4.3727328521042045e-04 1.0583741173935653e-04 0.0000000000000000e+00  0.0000000000000000e+00 0.0000000000000000e+00 0.0000000000000000e+00  5.1078315983860156e-04 1.9635595226466569e-04 0.0000000000000000e+00  5.0912756520922573e-04 2.6366640669608807e-04 0.0000000000000000e+00  4.9491895158013067e-04 3.0973843549139348e-04 0.0000000000000000e+00  4.7786695656915523e-04 3.3726662658805284e-04 0.0000000000000000e+00  4.5891898013328616e-04 3.4886623828500921e-04 0.0000000000000000e+00  4.3825717611932290e-04 3.4692554476009764e-04 0.0000000000000000e+00  4.1639107481017867e-04 3.3356737354920340e-04 0.0000000000000000e+00  3.9412291391933046e-04 3.1065716599689249e-04 0.0000000000000000e+00  3.7238604178182479e-04 2.7983284448908011e-04 0.0000000000000000e+00  3.5212767072925733e-04 2.4254123824380715e-04 0.0000000000000000e+00  3.3423016680028200e-04 2.0007497516875695e-04 0.0000000000000000e+00  3.1945582426730064e-04 1.5360422167593916e-04 0.0000000000000000e+00  3.0841730225672514e-04 1.0420548516466355e-04 0.0000000000000000e+00  3.0156254712905670e-04 5.2886944439857491e-05 0.0000000000000000e+00  2.9916470802202034e-04 6.1262318961576248e-07 0.0000000000000000e+00  3.013