<?xml version="1.0"?>
<VTKFile type="UnstructuredGrid"  version="0.1"  >
<UnstructuredGrid>
<Piece  NumberOfPoints="759" NumberOfCells="1408">
<Points>
<DataArray  type="Float64"  NumberOfComponents="3"  format="ascii">0 0.46875 0  0.03125 0.46875 0  0.03125 0.515625 0  0 0.515625 0  0.0625 0.46875 0  0.0625 0.515625 0  0.09375 0.46875 0  0.09375 0.515625 0  0.125 0.46875 0  0.125 0.515625 0  0.15625 0.46875 0  0.15625 0.515625 0  0.1875 0.46875 0  0.1875 0.515625 0  0.21875 0.46875 0  0.21875 0.515625 0  0.25 0.46875 0  0.25 0.515625 0  0.28125 0.46875 0  0.28125 0.515625 0  0.3125 0.46875 0  0.3125 0.515625 0  0.34375 0.46875 0  0.34375 0.515625 0  0.375 0.46875 0  0.375 0.515625 0  0.40625 0.46875 0  0.40625 0.515625 0  0.4375 0.46875 0  0.4375 0.515625 0  0.46875 0.46875 0  0.46875 0.515625 0  0.5 0.46875 0  0.5 0.515625 0  0.53125 0.46875 0  0.53125 0.515625 0  0.5625 0.46875 0  0.5625 0.515625 0  0.59375 0.46875 0  0.59375 0.515625 0  0.625 0.46875 0  0.625 0.515625 0  0.65625 0.46875 0  0.65625 0.515625 0  0.6875 0.46875 0  0.6875 0.515625 0  0.71875 0.46875 0  0.71875 0.515625 0  0.75 0.46875 0  0.75 0.515625 0  0.78125 0.46875 0  0.78125 0.515625 0  0.8125 0.46875 0  0.8125 0.515625 0  0.84375 0.46875 0  0.84375 0.515625 0  0.875 0.46875 0  0.875 0.515625 0  0.90625 0.46875 0  0.90625 0.515625 0  0.9375 0.46875 0  0.9375 0.515625 0  0.96875 0.46875 0  0.96875 0.515625 0  1 0.46875 0  1 0.515625 0  0.03125 0.5625 0  0 0.5625 0  0.0625 0.5625 0  0.09375 0.5625 0  0.125 0.5625 0  0.15625 0.5625 0  0.1875 0.5625 0  0.21875 0.5625 0  0.25 0.5625 0  0.28125 0.5625 0  0.3125 0.5625 0  0.34375 0.5625 0  0.375 0.5625 0  0.40625 0.5625 0  0.4375 0.5625 0  0.46875 0.5625 0  0.5 0.5625 0  0.53125 0.5625 0  0.5625 0.5625 0  0.59375 0.5625 0  0.625 0.5625 0  0.65625 0.5625 0  0.6875 0.5625 0  0.71875 0.5625 0  0.75 0.5625 0  0.78125 0.5625 0  0.8125 0.5625 0  0.84375 0.5625 0  0.875 0.5625 0  0.90625 0.5625 0  0.9375 0.5625 0  0.96875 0.5625 0  1 0.5625 0  0.03125 0.609375 0  0 0.609375 0  0.0625 0.609375 0  0.09375 0.609375 0  0.125 0.609375 0  0.15625 0.609375 0  0.1875 0.609375 0  0.21875 0.609375 0  0.25 0.609375 0  0.28125 0.609375 0  0.3125 0.609375 0  0.34375 0.609375 0  0.375 0.609375 0  0.40625 0.609375 0  0.4375 0.609375 0  0.46875 0.609375 0  0.5 0.609375 0  0.53125 0.609375 0  0.5625 0.609375 0  0.59375 0.609375 0  0.625 0.609375 0  0.65625 0.609375 0  0.6875 0.609375 0  0.71875 0.609375 0  0.75 0.609375 0  0.78125 0.609375 0  0.8125 0.609375 0  0.84375 0.609375 0  0.875 0.609375 0  0.90625 0.609375 0  0.9375 0.609375 0  0.96875 0.609375 0  1 0.609375 0  0.03125 0.65625 0  0 0.65625 0  0.0625 0.65625 0  0.09375 0.65625 0  0.125 0.65625 0  0.15625 0.65625 0  0.1875 0.65625 0  0.21875 0.65625 0  0.25 0.65625 0  0.28125 0.65625 0  0.3125 0.65625 0  0.34375 0.65625 0  0.375 0.65625 0  0.40625 0.65625 0  0.4375 0.65625 0  0.46875 0.65625 0  0.5 0.65625 0  0.53125 0.65625 0  0.5625 0.65625 0  0.59375 0.65625 0  0.625 0.65625 0  0.65625 0.65625 0  0.6875 0.65625 0  0.71875 0.65625 0  0.75 0.65625 0  0.78125 0.65625 0  0.8125 0.65625 0  0.84375 0.65625 0  0.875 0.65625 0  0.90625 0.65625 0  0.9375 0.65625 0  0.96875 0.65625 0  1 0.65625 0  0.03125 0.703125 0  0 0.703125 0  0.0625 0.703125 0  0.09375 0.703125 0  0.125 0.703125 0  0.15625 0.703125 0  0.1875 0.703125 0  0.21875 0.703125 0  0.25 0.703125 0  0.28125 0.703125 0  0.3125 0.703125 0  0.34375 0.703125 0  0.375 0.703125 0  0.40625 0.703125 0  0.4375 0.703125 0  0.46875 0.703125 0  0.5 0.703125 0  0.53125 0.703125 0  0.5625 0.703125 0  0.59375 0.703125 0  0.625 0.703125 0  0.65625 0.703125 0  0.6875 0.703125 0  0.71875 0.703125 0  0.75 0.703125 0  0.78125 0.703125 0  0.8125 0.703125 0  0.84375 0.703125 0  0.875 0.703125 0  0.90625 0.703125 0  0.9375 0.703125 0  0.96875 0.703125 0  1 0.703125 0  0.03125 0.75 0  0 0.75 0  0.0625 0.75 0  0.09375 0.75 0  0.125 0.75 0  0.15625 0.75 0  0.1875 0.75 0  0.21875 0.75 0  0.25 0.75 0  0.28125 0.75 0  0.3125 0.75 0  0.34375 0.75 0  0.375 0.75 0  0.40625 0.75 0  0.4375 0.75 0  0.46875 0.75 0  0.5 0.75 0  0.53125 0.75 0  0.5625 0.75 0  0.59375 0.75 0  0.625 0.75 0  0.65625 0.75 0  0.6875 0.75 0  0.71875 0.75 0  0.75 0.75 0  0.78125 0.75 0  0.8125 0.75 0  0.84375 0.75 0  0.875 0.75 0  0.90625 0.75 0  0.9375 0.75 0  0.96875 0.75 0  1 0.75 0  0.03125 0.796875 0  0 0.796875 0  0.0625 0.796875 0  0.09375 0.796875 0  0.125 0.796875 0  0.15625 0.796875 0  0.1875 0.796875 0  0.21875 0.796875 0  0.25 0.796875 0  0.28125 0.796875 0  0.3125 0.796875 0  0.34375 0.796875 0  0.375 0.796875 0  0.40625 0.796875 0  0.4375 0.796875 0  0.46875 0.796875 0  0.5 0.796875 0  0.53125 0.796875 0  0.5625 0.796875 0  0.59375 0.796875 0  0.625 0.796875 0  0.65625 0.796875 0  0.6875 0.796875 0  0.71875 0.796875 0  0.75 0.796875 0  0.78125 0.796875 0  0.8125 0.796875 0  0.84375 0.796875 0  0.875 0.796875 0  0.90625 0.796875 0  0.9375 0.796875 0  0.96875 0.796875 0  1 0.796875 0  0.03125 0.84375 0  0 0.84375 0  0.0625 0.84375 0  0.09375 0.84375 0  0.125 0.84375 0  0.15625 0.84375 0  0.1875 0.84375 0  0.21875 0.84375 0  0.25 0.84375 0  0.28125 0.84375 0  0.3125 0.84375 0  0.34375 0.84375 0  0.375 0.84375 0  0.40625 0.84375 0  0.4375 0.84375 0  0.46875 0.84375 0  0.5 0.84375 0  0.53125 0.84375 0  0.5625 0.84375 0  0.59375 0.84375 0  0.625 0.84375 0  0.65625 0.84375 0  0.6875 0.84375 0  0.71875 0.84375 0  0.75 0.84375 0  0.78125 0.84375 0  0.8125 0.84375 0  0.84375 0.84375 0  0.875 0.84375 0  0.90625 0.84375 0  0.9375 0.84375 0  0.96875 0.84375 0  1 0.84375 0  0.03125 0.890625 0  0 0.890625 0  0.0625 0.890625 0  0.09375 0.890625 0  0.125 0.890625 0  0.15625 0.890625 0  0.1875 0.890625 0  0.21875 0.890625 0  0.25 0.890625 0  0.28125 0.890625 0  0.3125 0.890625 0  0.34375 0.890625 0  0.375 0.890625 0  0.40625 0.890625 0  0.4375 0.890625 0  0.46875 0.890625 0  0.5 0.890625 0  0.53125 0.890625 0  0.5625 0.890625 0  0.59375 0.890625 0  0.625 0.890625 0  0.65625 0.890625 0  0.6875 0.890625 0  0.71875 0.890625 0  0.75 0.890625 0  0.78125 0.890625 0  0.8125 0.890625 0  0.84375 0.890625 0  0.875 0.890625 0  0.90625 0.890625 0  0.9375 0.890625 0  0.96875 0.890625 0  1 0.890625 0  0.03125 0.9375 0  0 0.9375 0  0.0625 0.9375 0  0.09375 0.9375 0  0.125 0.9375 0  0.15625 0.9375 0  0.1875 0.9375 0  0.21875 0.9375 0  0.25 0.9375 0  0.28125 0.9375 0  0.3125 0.9375 0  0.34375 0.9375 0  0.375 0.9375 0  0.40625 0.9375 0  0.4375 0.9375 0  0.46875 0.9375 0  0.5 0.9375 0  0.53125 0.9375 0  0.5625 0.9375 0  0.59375 0.9375 0  0.625 0.9375 0  0.65625 0.9375 0  0.6875 0.9375 0  0.71875 0.9375 0  0.75 0.9375 0  0.78125 0.9375 0  0.8125 0.9375 0  0.84375 0.9375 0  0.875 0.9375 0  0.90625 0.9375 0  0.9375 0.9375 0  0.96875 0.9375 0  1 0.9375 0  0.03125 0.984375 0  0 0.984375 0  0.0625 0.984375 0  0.09375 0.984375 0  0.125 0.984375 0  0.15625 0.984375 0  0.1875 0.984375 0  0.21875 0.984375 0  0.25 0.984375 0  0.28125 0.984375 0  0.3125 0.984375 0  0.34375 0.984375 0  0.375 0.984375 0  0.40625 0.984375 0  0.4375 0.984375 0  0.46875 0.984375 0  0.5 0.984375 0  0.53125 0.984375 0  0.5625 0.984375 0  0.59375 0.984375 0  0.625 0.984375 0  0.65625 0.984375 0  0.6875 0.984375 0  0.71875 0.984375 0  0.75 0.984375 0  0.78125 0.984375 0  0.8125 0.984375 0  0.84375 0.984375 0  0.875 0.984375 0  0.90625 0.984375 0  0.9375 0.984375 0  0.96875 0.984375 0  1 0.984375 0  0.03125 1.03125 0  0 1.03125 0  0.0625 1.03125 0  0.09375 1.03125 0  0.125 1.03125 0  0.15625 1.03125 0  0.1875 1.03125 0  0.21875 1.03125 0  0.25 1.03125 0  0.28125 1.03125 0  0.3125 1.03125 0  0.34375 1.03125 0  0.375 1.03125 0  0.40625 1.03125 0  0.4375 1.03125 0  0.46875 1.03125 0  0.5 1.03125 0  0.53125 1.03125 0  0.5625 1.03125 0  0.59375 1.03125 0  0.625 1.03125 0  0.65625 1.03125 0  0.6875 1.03125 0  0.71875 1.03125 0  0.75 1.03125 0  0.78125 1.03125 0  0.8125 1.03125 0  0.84375 1.03125 0  0.875 1.03125 0  0.90625 1.03125 0  0.9375 1.03125 0  0.96875 1.03125 0  1 1.03125 0  0.03125 1.078125 0  0 1.078125 0  0.0625 1.078125 0  0.09375 1.078125 0  0.125 1.078125 0  0.15625 1.078125 0  0.1875 1.078125 0  0.21875 1.078125 0  0.25 1.078125 0  0.28125 1.078125 0  0.3125 1.078125 0  0.34375 1.078125 0  0.375 1.078125 0  0.40625 1.078125 0  0.4375 1.078125 0  0.46875 1.078125 0  0.5 1.078125 0  0.53125 1.078125 0  0.5625 1.078125 0  0.59375 1.078125 0  0.625 1.078125 0  0.65625 1.078125 0  0.6875 1.078125 0  0.71875 1.078125 0  0.75 1.078125 0  0.78125 1.078125 0  0.8125 1.078125 0  0.84375 1.078125 0  0.875 1.078125 0  0.90625 1.078125 0  0.9375 1.078125 0  0.96875 1.078125 0  1 1.078125 0  0.03125 1.125 0  0 1.125 0  0.0625 1.125 0  0.09375 1.125 0  0.125 1.125 0  0.15625 1.125 0  0.1875 1.125 0  0.21875 1.125 0  0.25 1.125 0  0.28125 1.125 0  0.3125 1.125 0  0.34375 1.125 0  0.375 1.125 0  0.40625 1.125 0  0.4375 1.125 0  0.46875 1.125 0  0.5 1.125 0  0.53125 1.125 0  0.5625 1.125 0  0.59375 1.125 0  0.625 1.125 0  0.65625 1.125 0  0.6875 1.125 0  0.71875 1.125 0  0.75 1.125 0  0.78125 1.125 0  0.8125 1.125 0  0.84375 1.125 0  0.875 1.125 0  0.90625 1.125 0  0.9375 1.125 0  0.96875 1.125 0  1 1.125 0  0.03125 1.171875 0  0 1.171875 0  0.0625 1.171875 0  0.09375 1.171875 0  0.125 1.171875 0  0.15625 1.171875 0  0.1875 1.171875 0  0.21875 1.171875 0  0.25 1.171875 0  0.28125 1.171875 0  0.3125 1.171875 0  0.34375 1.171875 0  0.375 1.171875 0  0.40625 1.171875 0  0.4375 1.171875 0  0.46875 1.171875 0  0.5 1.171875 0  0.53125 1.171875 0  0.5625 1.171875 0  0.59375 1.171875 0  0.625 1.171875 0  0.65625 1.171875 0  0.6875 1.171875 0  0.71875 1.171875 0  0.75 1.171875 0  0.78125 1.171875 0  0.8125 1.171875 0  0.84375 1.171875 0  0.875 1.171875 0  0.90625 1.171875 0  0.9375 1.171875 0  0.96875 1.171875 0  1 1.171875 0  0.03125 1.21875 0  0 1.21875 0  0.0625 1.21875 0  0.09375 1.21875 0  0.125 1.21875 0  0.15625 1.21875 0  0.1875 1.21875 0  0.21875 1.21875 0  0.25 1.21875 0  0.28125 1.21875 0  0.3125 1.21875 0  0.34375 1.21875 0  0.375 1.21875 0  0.40625 1.21875 0  0.4375 1.21875 0  0.46875 1.21875 0  0.5 1.21875 0  0.53125 1.21875 0  0.5
[...]
<PointData  Vectors="u"> 
<DataArray  type="Float64"  Name="u"  NumberOfComponents="3" format="ascii">1.4116401950335583e-02 7.1452962899807757e-04 0.0000000000000000e+00  1.6277595463492549e-02 3.9893957243987118e-03 0.0000000000000000e+00  1.7909145085516654e-02 4.2714882550104385e-03 0.0000000000000000e+00  1.5337467322740560e-02 9.3240337317411666e-04 0.0000000000000000e+00  1.5726479602232786e-02 7.2650178468799311e-03 0.0000000000000000e+00  1.7523749459681943e-02 7.8605035424820537e-03 0.0000000000000000e+00  1.4635500360868607e-02 1.0194596769036206e-02 0.0000000000000000e+00  1.6218955299979985e-02 1.1032495529183756e-02 0.0000000000000000e+00  1.3206365097842898e-02 1.2658699912083083e-02 0.0000000000000000e+00  1.4558907641833724e-02 1.3675999302390164e-02 0.0000000000000000e+00  1.1547067996117174e-02 1.4591626195683464e-02 0.0000000000000000e+00  1.2696880080190962e-02 1.5729458172916707e-02 0.0000000000000000e+00  9.7472977003570729e-03 1.5949099215079213e-02 0.0000000000000000e+00  1.0721974210723798e-02 1.7154520011488955e-02 0.0000000000000000e+00  7.8853441062593718e-03 1.6707075694809739e-02 0.0000000000000000e+00  8.7091869316483998e-03 1.7933220379714624e-02 0.0000000000000000e+00  6.0301717128065811e-03 1.6861459071372206e-02 0.0000000000000000e+00  6.7244916315681285e-03 1.8067046448795098e-02 0.0000000000000000e+00  4.2423891298816558e-03 1.6426882866764601e-02 0.0000000000000000e+00  4.8257593317747845e-03 1.7575808008852910e-02 0.0000000000000000e+00  2.5748485204657324e-03 1.5435085438769792e-02 0.0000000000000000e+00  3.0635724039824214e-03 1.6496002406540856e-02 0.0000000000000000e+00  1.0731515403713549e-03 1.3932959863896397e-02 0.0000000000000000e+00  1.4814290060821357e-03 1.4879007819468120e-02 0.0000000000000000e+00  -2.2398394243109646e-04 1.1980576131724867e-02 0.0000000000000000e+00  1.1630130430960521e-04 1.2789079851099639e-02 0.0000000000000000e+00  -1.2843377331665433e-03 9.6491025847263989e-03 0.0000000000000000e+00  -1.0012056220436026e-03 1.0301403499121856e-02 0.0000000000000000e+00  -2.0819650233409393e-03 7.0188157522019616e-03 0.0000000000000000e+00  -1.8465191515264702e-03 7.5000850680901100e-03 0.0000000000000000e+00  -2.5969916533145798e-03 4.1770761954078488e-03 0.0000000000000000e+00  -2.4010614396849585e-03 4.4762550081005716e-03 0.0000000000000000e+00  -2.8154926265872328e-03 1.2163888487551810e-03 0.0000000000000000e+00  -2.6520355661758576e-03 1.3261307725893645e-03 0.0000000000000000e+00  -2.7294286106070726e-03 -1.7675708872008421e-03 0.0000000000000000e+00  -2.5925289466566387e-03 -1.8508364885992841e-03 0.0000000000000000e+00  -2.3367056595850742e-03 -4.6779043233076993e-03 0.0000000000000000e+00  -2.2215447195449928e-03 -4.9538869576956808e-03 0.0000000000000000e+00  -1.6412668748254095e-03 -7.4185176465275289e-03 0.0000000000000000e+00  -1.5442394067885037e-03 -7.8828733983844143e-03 0.0000000000000000e+00  -6.5326497027751510e-04 -9.8961923497814762e-03 0.0000000000000000e+00  -5.7210953033116766e-04 -1.0540307541501570e-02 0.0000000000000000e+00  6.1070614259891274e-04 -1.2022790920552801e-02 0.0000000000000000e+00  6.7657754055884946e-04 -1.2833477752271529e-02 0.0000000000000000e+00  2.1273104944270829e-03 -1.3717548985326346e-02 0.0000000000000000e+00  2.1764359265529398e-03 -1.4676736340996919e-02 0.0000000000000000e+00  3.8662201125773416e-03 -1.4909528690853224e-02 0.0000000000000000e+00  3.8944695822269951e-03 -1.5993889216851399e-02 0.0000000000000000e+00  5.7898220273841150e-03 -1.5540147347060650e-02 0.0000000000000000e+00  5.7897039612025180e-03 -1.6720745402721691e-02 0.0000000000000000e+00  7.8529926231246782e-03 -1.5565814951373162e-02 0.0000000000000000e+00  7.8126759332199092e-03 -1.6807712351610587e-02 0.0000000000000000e+00  1.0002713689979067e-02 -1.4960567106592286e-02 0.0000000000000000e+00  9.9050452145040199e-03 -1.6222439099137564e-02 0.0000000000000000e+00  1.2176840333863724e-02 -1.3718706938301630e-02 0.0000000000000000e+00  1.1998426809640202e-02 -1.4952358542938899e-02 0.0000000000000000e+00  1.4298488415729782e-02 -1.1857513459330168e-02 0.0000000000000000e+00  1.4010395006368671e-02 -1.3007185628870752e-02 0.0000000000000000e+00  1.6249774451591155e-02 -9.4210536911814944e-03 0.0000000000000000e+00  1.5825468553789000e-02 -1.0421947114782334e-02 0.0000000000000000e+00  1.7752578083364841e-02 -6.4917810749548915e-03 0.0000000000000000e+00  1.7208733808223721e-02 -7.2655750311005360e-03 0.0000000000000000e+00  1.7927576428699899e-02 -3.2623586613857356e-03 0.0000000000000000e+00  1.7459893320212836e-02 -3.6937570070117369e-03 0.0000000000000000e+00  1.5189945524183521e-02 -3.0009062101571187e-04 0.0000000000000000e+00  1.4590423099167450e-02 -4.1159118124955540e-04 0.0000000000000000e+00  1.9809736143227709e-02 5.0661775472637376e-03 0.0000000000000000e+00  1.7169907153181972e-02 1.3983234073302602e-03 0.0000000000000000e+00  1.9303855575347320e-02 9.3118695486143419e-03 0.0000000000000000e+00  1.7925723806037571e-02 1.3011100722525117e-02 0.0000000000000000e+00  1.6157623897560657e-02 1.6036968692963897e-02 0.0000000000000000e+00  1.4168986055795026e-02 1.8340960808469822e-02 0.0000000000000000e+00  1.2062183972140348e-02 1.9898675456737066e-02 0.0000000000000000e+00  9.9185034435936015e-03 2.0705423825202660e-02 0.0000000000000000e+00  7.8080845168232698e-03 2.0775306006121354e-02 0.0000000000000000e+00  5.7924367056876843e-03 2.0139909249707572e-02 0.0000000000000000e+00  3.9246078308848124e-03 1.8846795272603360e-02 0.0000000000000000e+00  2.2501758992940243e-03 1.6957640619443260e-02 0.0000000000000000e+00  8.0730766575668063e-04 1.4546429044748817e-02 0.0000000000000000e+00  -3.7234855084709514e-04 1.1697476011520590e-02 0.0000000000000000e+00  -1.2637321052071070e-03 8.5036621115536452e-03 0.0000000000000000e+00  -1.8477149011357540e-03 5.0645519798139006e-03 0.0000000000000000e+00  -2.1112143863185606e-03 1.4847328840956308e-03 0.0000000000000000e+00  -2.0468984880062692e-03 -2.1279750956120802e-03 0.0000000000000000e+00  -1.6535182393103418e-03 -5.6641640210622997e-03 0.0000000000000000e+00  -9.3588895743253403e-04 -9.0146682832930019e-03 0.0000000000000000e+00  9.4558480871967583e-05 -1.2072363391702872e-02 0.0000000000000000e+00  1.4194910521731175e-03 -1.4734201337891689e-02 0.0000000000000000e+00  3.0128871534689230e-03 -1.6903311039206049e-02 0.0000000000000000e+00  4.8406516949746781e-03 -1.8491350752581372e-02 0.0000000000000000e+00  6.8597422421963518e-03 -1.9420938643925519e-02 0.0000000000000000e+00  9.0177594135298026e-03 -1.9628256840436089e-02 0.0000000000000000e+00  1.1252072790752028e-02 -1.9065608890402652e-02 0.0000000000000000e+00  1.3488745064823410e-02 -1.7703935875986471e-02 0.0000000000000000e+00  1.5637769779569360e-02 -1.5535153769659651e-02 0.0000000000000000e+00  1.7572051488493317e-02 -1.2575105760341565e-02 0.0000000000000000e+00  1.9028165993897492e-02 -8.8733615188392925e-03 0.0000000000000000e+00  1.9188202399711515e-02 -4.5895412034578243e-03 0.0000000000000000e+00  1.5681246910672363e-02 -8.5876884724242117e-04 0.0000000000000000e+00  2.2684893745758591e-02 6.0281205303307408e-03 0.0000000000000000e+00  1.9756186970194350e-02 1.8639414707132393e-03 0.0000000000000000e+00  2.2100836166125466e-02 1.1038769709873303e-02 0.0000000000000000e+00  2.0603352341597769e-02 1.5355445139549622e-02 0.0000000000000000e+00  1.8691578823383088e-02 1.8829871979187774e-02 0.0000000000000000e+00  1.6542527240050155e-02 2.1425986768809583e-02 0.0000000000000000e+00  1.4266163094122640e-02 2.3135532414239240e-02 0.0000000000000000e+00  1.1951684400821902e-02 2.3970064393226308e-02 0.0000000000000000e+00  9.6763478065839993e-03 2.3959179102943984e-02 0.0000000000000000e+00  7.5064885337043424e-03 2.3149096867428505e-02 0.0000000000000000e+00  5.4994508232883398e-03 2.1600957473046994e-02 0.0000000000000000e+00  3.7032109761462569e-03 1.9389077502744153e-02 0.0000000000000000e+00  2.1581703617484607e-03 1.6599031323179005e-02 0.0000000000000000e+00  8.9682949269345052e-04 1.3325955602439096e-02 0.0000000000000000e+00  -5.4679313550720499e-05 9.6727338762950098e-03 0.0000000000000000e+00  -6.7697072924141968e-04 5.7485275651675870e-03 0.0000000000000000e+00  -9.5624246124030143e-04 1.6671325455394190e-03 0.0000000000000000e+00  -8.8487068862418215e-04 -2.4543260784750435e-03 0.0000000000000000e+00  -4.6082298320990916e-04 -6.4969630375602714e-03 0.0000000000000000e+00  3.1152024372348597e-04 -1.0341484920390196e-02 0.0000000000000000e+00  1.4214359947858270e-03 -1.3869888658227447e-02 0.0000000000000000e+00  2.8506816441678821e-03 -1.6967104252057996e-02 0.0000000000000000e+00  4.5731712831644476e-03 -1.9523016614879516e-02 0.0000000000000000e+00  6.5536175596039112e-03 -2.1434561909484225e-02 0.0000000000000000e+00  8.7470546093870050e-03 -2.2608152493915953e-02 0.0000000000000000e+00  1.1097458610722973e-02 -2.2962177913141681e-02 0.0000000000000000e+00  1.3537294825341781e-02 -2.2429655190254586e-02 0.0000000000000000e+00  1.5985488092410731e-02 -2.0960795475621387e-02 0.0000000000000000e+00  1.8342396015005345e-02 -1.8525607391542274e-02 0.0000000000000000e+00  2.0464052761120996e-02 -1.5117522713998015e-02 0.0000000000000000e+00  2.2041981873024599e-02 -1.0767021259389185e-02 0.0000000000000000e+00  2.2093538624712115e-02 -5.6509284239545160e-03 0.0000000000000000e+00  1.7841474853689664e-02 -1.3598293590282493e-03 0.0000000000000000e+00  2.6554408426861291e-02 7.0926764092987841e-03 0.0000000000000000e+00  2.3140645644099074e-02 2.3477420688762596e-03 0.0000000000000000e+00  2.5920205548672526e-02 1.2945533658082086e-02 0.0000000000000000e+00  2.4291375357250330e-02 1.7936851826540503e-02 0.0000000000000000e+00  2.2217001353808448e-02 2.1897910058734853e-02 0.0000000000000000e+00  1.9887245712002673e-02 2.4806999059254275e-02 0.0000000000000000e+00  1.7422362818957565e-02 2.6674159491106311e-02 0.0000000000000000e+00  1.4920902423500877e-02 2.7529639145717218e-02 0.0000000000000000e+00  1.2466628976444832e-02 2.7421124387849081e-02 0.0000000000000000e+00  1.0132016485295593e-02 2.6411900847092631e-02 0.0000000000000000e+00  7.9775594688119619e-03 2.4578910064841551e-02 0.0000000000000000e+00  6.0544313354771702e-03 2.2010857945856090e-02 0.0000000000000000e+00  4.4036925868380164e-03 1.8806371681521487e-02 0.0000000000000000e+00  3.0591853407726313e-03 1.5072269440326679e-02 0.0000000000000000e+00  2.0465513908459751e-03 1.0922113569627584e-02 0.0000000000000000e+00  1.3858519938454864e-03 6.4747716437678036e-03 0.0000000000000000e+00  1.0904283927759167e-03 1.8533823869032429e-03 0.0000000000000000e+00  1.1688263420033436e-03 -2.8158772731491674e-03 0.0000000000000000e+00  1.6232899895738616e-03 -7.4046265330517738e-03 0.0000000000000000e+00  2.4508674515514410e-03 -1.1783526964236611e-02 0.0000000000000000e+00  3.6415679478275674e-03 -1.5823284138952974e-02 0.0000000000000000e+00  5.1785742841200895e-03 -1.9396177931959531e-02 0.0000000000000000e+00  7.0360814155147064e-03 -2.2377576010338990e-02 0.0000000000000000e+00  9.1790108300842579e-03 -2.4647966888766252e-02 0.0000000000000000e+00  1.1560784569559545e-02 -2.6095159105638224e-02 0.0000000000000000e+00  1.4122820707040575e-02 -2.6616866867526207e-02 0.0000000000000000e+00  1.6792575511999960e-02 -2.6123467109672512e-02 0.0000000000000000e+00  1.9482168975794380e-02 -2.4540925992314937e-02 0.0000000000000000e+00  2.2081281994076430e-02 -2.1813998236015760e-02 0.0000000000000000e+00  2.4426786444408426e-02 -1.7911167520377982e-02 0.0000000000000000e+00  2.6155298224527609e-02 -1.2843079749312841e-02 0.0000000000000000e+00  2.6081730966600894e-02 -6.8066070331680396e-03 0.0000000000000000e+00  2.0887048536365166e-02 -1.8581570567386871e-03 0.0000000000000000e+00  3.1464578743884822e-02 8.2557504872010062e-03 0.0000000000000000e+00  2.7365435817743481e-02 2.8712404237738343e-03 0.0000000000000000e+00  3.0807988828537164e-02 1.5022669178713173e-02 0.0000000000000000e+00  2.9043921331297604e-02 2.0740692938294506e-02 0.0000000000000000e+00  2.6801027025457377e-02 2.5220867149981570e-02 0.0000000000000000e+00  2.4288822013382529e-02 2.8457715853353806e-02 0.0000000000000000e+00  2.1639552153229023e-02 3.0482440955645451e-02 0.0000000000000000e+00  1.8959817418139326e-02 3.1346993560580669e-02 0.0000000000000000e+00  1.6340676991430665e-02 3.1120268622777905e-02 0.0000000000000000e+00  1.3858157919854128e-02 2.9885422417638391e-02 0.0000000000000000e+00  1.1576295113316398e-02 2.7737690049861836e-02 0.0000000000000000e+00  9.5462179333408448e-03 2.4782096386316496e-02 0.0000000000000000e+00  7.8100240233262459e-03 2.1131687939650600e-02 0.0000000000000000e+00  6.3995612316128303e-03 1.6905807525907715e-02 0.0000000000000000e+00  5.3406079562518466e-03 1.2228898008654794e-02 0.0000000000000000e+00  4.6510168774846110e-03 7.2294754208418370e-03 0.0000000000000000e+00  4.3447285279978069e-03 2.0393864755151115e-03 0.0000000000000000e+00  4.4292170938042058e-03 -3.2066622526615257e-03 0.0000000000000000e+00  4.9085377137160838e-03 -8.3716769758683876e-03 0.0000000000000000e+00  5.7803256854895907e-03 -1.3316677550655300e-02 0.0000000000000000e+00  7.0375181737905848e-03 -1.7901473521906026e-02 0.0000000000000000e+00  8.6649942361174456e-03 -2.1985332718449217e-02 0.0000000000000000e+00  1.0639895305134817e-02 -2.5428324007113985e-02 0.0000000000000000e+00  1.2928337877248794e-02 -2.8092832151565918e-02 0.0000000000000000e+00  1.5484859415723983e-02 -2.9845725760629202e-02 0.0000000000000000e+00  1.8249482860397841e-02 -3.0560918985723905e-02 0.0000000000000000e+00  2.1146871075312407e-02 -3.0122418799783012e-02 0.0000000000000000e+00  2.4082968583746551e-02 -2.8427813030099423e-02 0.0000000000000000e+00  2.6937504029394425e-02 -2.5392367638055691e-02 0.0000000000000000e+00  2.9525885212068979e-02 -2.0955739290242012e-02 0.0000000000000000e+00  3.1419715994159041e-02 -1.5105822675294806e-02 0.0000000000000000e+00  3.1186029355913129e-02 -8.0601163456014459e-03 0.0000000000000000e+00  2.4808132807616647e-02 -2.3729759776585616e-03 0.0000000000000000e+00  3.7508512299377704e-02 9.5177018181670167e-03 0.0000000000000000e+00  3.2504239517030284e-02 3.4512676658015723e-03 0.0000000000000000e+00  3.6862296736707462e-02 1.7266469937168624e-02 0.0000000000000000e+00  3.4968536591733428e-02 2.3757716970705920e-02 0.0000000000000000e+00  3.2565011170787778e-02 2.8781668068250596e-02 0.0000000000000000e+00  2.9887506920911338e-02 3.2352306474000829e-02 0.0000000000000000e+00  2.7080044658137556e-02 3.4525764685445458e-02 0.0000000000000000e+00  2.4257482936529167e-02 3.5379802551332794e-02 0.0000000000000000e+00  2.1515093096729904e-02 3.5008307889476252e-02 0.0000000000000000e+00  1.8931793104058597e-02 3.3517873019305727e-02 0.0000000000000000e+00  1.6570685608919510e-02 3.1024760765397785e-02 0.0000000000000000e+00  1.4482285264446145e-02 2.7652535504263828e-02 0.0000000000000000e+00  1.2704595727344246e-02 2.3529872275472773e-02 0.0000000000000000e+00  1.1267704732663624e-02 1.8789268045672766e-02 0.0000000000000000e+00  1.0192519505998804e-02 1.3565826159539118e-02 0.0000000000000000e+00  9.4960961306295669e-03 7.9969876743869583e-03 0.0000000000000000e+00  9.1888278705026215e-03 2.2221609829479747e-03 0.0000000000000000e+00  9.2796244063963335e-03 -3.6169213886499377e-03 0.0000000000000000e+00  9.7716493188861452e-03 -9.3760309059527040e-03 0.0000000000000000e+00  1.0666431930421535e-02 -1.4908043026618802e-02 0.0000000000000000e+00  1.1958980372028657e-02 -2.0062717147616978e-02 0.0000000000000000e+00  1.3639746851290097e-02 -2.4686867808254860e-02 0.0000000000000000e+00  1.5689769842315644e-02 -2.8624791176274759e-02 0.0000000000000000e+00  1.8080571759484389e-02 -3.1719534636606421e-02 0.0000000000000000e+00  2.0769935308301707e-02 -3.3814634240840427e-02 0.0000000000000000e+00  2.3700476445419970e-02 -3.4756801882615110e-02 0.0000000000000000e+00  2.6796366310346639e-02 -3.4399274039167968e-02 0.0000000000000000e+00  2.9960251930374538e-02 -3.2606038045986718e-02 0.0000000000000000e+00  3.3062791071823569e-02 -2.9257149955425717e-02 0.0000000000000000e+00  3.5896653926677492e-02 -2.4257541766399115e-02 0.0000000000000000e+00  3.7956711476087812e-02 -1.7567090798725021e-02 0.0000000000000000e+00  3.7509728882614321e-02 -9.4232441696058388e-03 0.0000000000000000e+00  2.9663594268509664e-02 -2.9289519683874453e-03 0.0000000000000000e+00  4.4816239076856473e-02 1.0874324311317145e-02 0.0000000000000000e+00  3.8657548614140128e-02 4.1014099710238406e-03 0.0000000000000000e+00  4.4222256570208458e-02 1.9664319982394735e-02 0.0000000000000000e+00  4.2214765094122794e-02 2.6963503772121828e-02 0.0000000000000000e+00  3.9674080616095453e-02 3.2541518280392097e-02 0.0000000000000000e+00  3.6868347077769668e-02 3.6436686604547470e-02 0.0000000000000000e+00  3.3954091692423978e-02 3.8735592585533322e-02 0.0000000000000000e+00  3.1052330874436120e-02 3.9547283869787113e-02 0.0000000000000000e+00  2.8260388628007831e-02 3.8995702783405299e-02 0.0000000000000000e+00  2.5655572378955292e-02 3.7215112879588313e-02 0.0000000000000000e+00  2.3297307028039758e-02 3.4346189166492395e-02 0.0000000000000000e+00  2.1229603513267647e-02 3.0533147618565432e-02 0.0000000000000000e+00  1.9484510985539480e-02 2.5921544583611872e-02 0.0000000000000000e+00  1.8083899265372291e-02 2.0656910125513073e-02 0.0000000000000000e+00  1.7043930669456038e-02 1.4884335080618219e-02 0.0000000000000000e+00  1.6374670618729558e-02 8.7483336842617797e-03 0.0000000000000000e+00  1.6085450436949041e-02 2.3938792270704824e-03 0.0000000000000000e+00  1.6181646612347861e-02 -4.0329619220479951e-03 0.0000000000000000e+00  1.6669878108760857e-02 -1.0383240767439357e-02 0.0000000000000000e+00  1.7552691730519328e-02 -1.6504191391124547e-02 0.0000000000000000e+00  1.8832421151191100e-02 -2.2237641598901153e-02 0.0000000000000000e+00  2.0504946674048945e-02 -2.7419266056498297e-02 0.0000000000000000e+00  2.2560816927409626e-02 -3.1878186971464488e-02 0.0000000000000000e+00  2.4979486856160301e-02 -3.5437264529102071e-02 0.0000000000000000e+00  2.7727702657716312e-02 -3.7914663012803947e-02 0.0000000000000000e+00  3.0754735811654478e-02 -3.9126162458628204e-02 0.0000000000000000e+00  3.3989354598970130e-02 -3.8889084578069368e-02 0.0000000000000000e+00  3.7334591765685217e-02 -3.7027206733803081e-02 0.0000000000000000e+00  4.0654764753541094e-02 -3.3377683510031377e-02 0.0000000000000000e+00  4.3718829599183856e-02 -2.7802341110485410e-02 0.0000000000000000e+00  4.5932246215392318e-02 -2.0224970640197584e-02 0.0000000000000000e+00  4.5200846656792491e-02 -1.0900615809743483e-02 0.0000000000000000e+00  3.5551873473987743e-02 -3.5458897203294042e-03 0.0000000000000000e+00  5.3548277601626573e-02 1.2315022278113520e-02 0.0000000000000000e+00  4.5947407911163952e-02 4.8334415026159280e-03 0.0000000000000000e+00  5.3059468719723273e-02 2.2190256670843615e-02 0.0000000000000000e+00  5.0966341232000632e-02 3.0312399024699926e-02 0.0000000000000000e+00  4.8329607606191170e-02 3.6432151213435543e-02 0.0000000000000000e+00  4.5456504973983743e-02 4.0619381438028859e-02 0.0000000000000000e+00  4.2516022410809956e-02 4.2999124037231502e-02 0.0000000000000000e+00  3.9632630866821547e-02 4.3719133441472977e-02 0.0000000000000000e+00  3.6901451596258288e-02 4.2940141855152589e-02 0.0000000000000000e+00  3.4393174784527081e-02 4.0829294904114140e-02 0.0000000000000000e+00  3.2157462247948194e-02 3.7555599161168934e-02 0.0000000000000000e+00  3.0226758415851551e-02 3.3286093945598436e-02 0.0000000000000000e+00  2.8620475160605868e-02 2.8183921299743980e-02 0.0000000000000000e+00  2.7349004773978388e-02 2.2407020914098751e-02 0.0000000000000000e+00  2.6417131424771596e-02 1.6108405293489211e-02 0.0000000000000000e+00  2.5827597798885524e-02 9.4370746457520770e-03 0.0000000000000000e+00  2.5582619583445147e-02 2.5396374288587202e-03 0.0000000000000000e+00  2.5686972698106204e-02 -4.4371251821312017e-03 0.0000000000000000e+00  