<?xml version="1.0"?>
<VTKFile type="UnstructuredGrid"  version="0.1"  >
<UnstructuredGrid>
<Piece  NumberOfPoints="759" NumberOfCells="1408">
<Points>
<DataArray  type="Float64"  NumberOfComponents="3"  format="ascii">0 0.46875 0  0.03125 0.46875 0  0.03125 0.515625 0  0 0.515625 0  0.0625 0.46875 0  0.0625 0.515625 0  0.09375 0.46875 0  0.09375 0.515625 0  0.125 0.46875 0  0.125 0.515625 0  0.15625 0.46875 0  0.15625 0.515625 0  0.1875 0.46875 0  0.1875 0.515625 0  0.21875 0.46875 0  0.21875 0.515625 0  0.25 0.46875 0  0.25 0.515625 0  0.28125 0.46875 0  0.28125 0.515625 0  0.3125 0.46875 0  0.3125 0.515625 0  0.34375 0.46875 0  0.34375 0.515625 0  0.375 0.46875 0  0.375 0.515625 0  0.40625 0.46875 0  0.40625 0.515625 0  0.4375 0.46875 0  0.4375 0.515625 0  0.46875 0.46875 0  0.46875 0.515625 0  0.5 0.46875 0  0.5 0.515625 0  0.53125 0.46875 0  0.53125 0.515625 0  0.5625 0.46875 0  0.5625 0.515625 0  0.59375 0.46875 0  0.59375 0.515625 0  0.625 0.46875 0  0.625 0.515625 0  0.65625 0.46875 0  0.65625 0.515625 0  0.6875 0.46875 0  0.6875 0.515625 0  0.71875 0.46875 0  0.71875 0.515625 0  0.75 0.46875 0  0.75 0.515625 0  0.78125 0.46875 0  0.78125 0.515625 0  0.8125 0.46875 0  0.8125 0.515625 0  0.84375 0.46875 0  0.84375 0.515625 0  0.875 0.46875 0  0.875 0.515625 0  0.90625 0.46875 0  0.90625 0.515625 0  0.9375 0.46875 0  0.9375 0.515625 0  0.96875 0.46875 0  0.96875 0.515625 0  1 0.46875 0  1 0.515625 0  0.03125 0.5625 0  0 0.5625 0  0.0625 0.5625 0  0.09375 0.5625 0  0.125 0.5625 0  0.15625 0.5625 0  0.1875 0.5625 0  0.21875 0.5625 0  0.25 0.5625 0  0.28125 0.5625 0  0.3125 0.5625 0  0.34375 0.5625 0  0.375 0.5625 0  0.40625 0.5625 0  0.4375 0.5625 0  0.46875 0.5625 0  0.5 0.5625 0  0.53125 0.5625 0  0.5625 0.5625 0  0.59375 0.5625 0  0.625 0.5625 0  0.65625 0.5625 0  0.6875 0.5625 0  0.71875 0.5625 0  0.75 0.5625 0  0.78125 0.5625 0  0.8125 0.5625 0  0.84375 0.5625 0  0.875 0.5625 0  0.90625 0.5625 0  0.9375 0.5625 0  0.96875 0.5625 0  1 0.5625 0  0.03125 0.609375 0  0 0.609375 0  0.0625 0.609375 0  0.09375 0.609375 0  0.125 0.609375 0  0.15625 0.609375 0  0.1875 0.609375 0  0.21875 0.609375 0  0.25 0.609375 0  0.28125 0.609375 0  0.3125 0.609375 0  0.34375 0.609375 0  0.375 0.609375 0  0.40625 0.609375 0  0.4375 0.609375 0  0.46875 0.609375 0  0.5 0.609375 0  0.53125 0.609375 0  0.5625 0.609375 0  0.59375 0.609375 0  0.625 0.609375 0  0.65625 0.609375 0  0.6875 0.609375 0  0.71875 0.609375 0  0.75 0.609375 0  0.78125 0.609375 0  0.8125 0.609375 0  0.84375 0.609375 0  0.875 0.609375 0  0.90625 0.609375 0  0.9375 0.609375 0  0.96875 0.609375 0  1 0.609375 0  0.03125 0.65625 0  0 0.65625 0  0.0625 0.65625 0  0.09375 0.65625 0  0.125 0.65625 0  0.15625 0.65625 0  0.1875 0.65625 0  0.21875 0.65625 0  0.25 0.65625 0  0.28125 0.65625 0  0.3125 0.65625 0  0.34375 0.65625 0  0.375 0.65625 0  0.40625 0.65625 0  0.4375 0.65625 0  0.46875 0.65625 0  0.5 0.65625 0  0.53125 0.65625 0  0.5625 0.65625 0  0.59375 0.65625 0  0.625 0.65625 0  0.65625 0.65625 0  0.6875 0.65625 0  0.71875 0.65625 0  0.75 0.65625 0  0.78125 0.65625 0  0.8125 0.65625 0  0.84375 0.65625 0  0.875 0.65625 0  0.90625 0.65625 0  0.9375 0.65625 0  0.96875 0.65625 0  1 0.65625 0  0.03125 0.703125 0  0 0.703125 0  0.0625 0.703125 0  0.09375 0.703125 0  0.125 0.703125 0  0.15625 0.703125 0  0.1875 0.703125 0  0.21875 0.703125 0  0.25 0.703125 0  0.28125 0.703125 0  0.3125 0.703125 0  0.34375 0.703125 0  0.375 0.703125 0  0.40625 0.703125 0  0.4375 0.703125 0  0.46875 0.703125 0  0.5 0.703125 0  0.53125 0.703125 0  0.5625 0.703125 0  0.59375 0.703125 0  0.625 0.703125 0  0.65625 0.703125 0  0.6875 0.703125 0  0.71875 0.703125 0  0.75 0.703125 0  0.78125 0.703125 0  0.8125 0.703125 0  0.84375 0.703125 0  0.875 0.703125 0  0.90625 0.703125 0  0.9375 0.703125 0  0.96875 0.703125 0  1 0.703125 0  0.03125 0.75 0  0 0.75 0  0.0625 0.75 0  0.09375 0.75 0  0.125 0.75 0  0.15625 0.75 0  0.1875 0.75 0  0.21875 0.75 0  0.25 0.75 0  0.28125 0.75 0  0.3125 0.75 0  0.34375 0.75 0  0.375 0.75 0  0.40625 0.75 0  0.4375 0.75 0  0.46875 0.75 0  0.5 0.75 0  0.53125 0.75 0  0.5625 0.75 0  0.59375 0.75 0  0.625 0.75 0  0.65625 0.75 0  0.6875 0.75 0  0.71875 0.75 0  0.75 0.75 0  0.78125 0.75 0  0.8125 0.75 0  0.84375 0.75 0  0.875 0.75 0  0.90625 0.75 0  0.9375 0.75 0  0.96875 0.75 0  1 0.75 0  0.03125 0.796875 0  0 0.796875 0  0.0625 0.796875 0  0.09375 0.796875 0  0.125 0.796875 0  0.15625 0.796875 0  0.1875 0.796875 0  0.21875 0.796875 0  0.25 0.796875 0  0.28125 0.796875 0  0.3125 0.796875 0  0.34375 0.796875 0  0.375 0.796875 0  0.40625 0.796875 0  0.4375 0.796875 0  0.46875 0.796875 0  0.5 0.796875 0  0.53125 0.796875 0  0.5625 0.796875 0  0.59375 0.796875 0  0.625 0.796875 0  0.65625 0.796875 0  0.6875 0.796875 0  0.71875 0.796875 0  0.75 0.796875 0  0.78125 0.796875 0  0.8125 0.796875 0  0.84375 0.796875 0  0.875 0.796875 0  0.90625 0.796875 0  0.9375 0.796875 0  0.96875 0.796875 0  1 0.796875 0  0.03125 0.84375 0  0 0.84375 0  0.0625 0.84375 0  0.09375 0.84375 0  0.125 0.84375 0  0.15625 0.84375 0  0.1875 0.84375 0  0.21875 0.84375 0  0.25 0.84375 0  0.28125 0.84375 0  0.3125 0.84375 0  0.34375 0.84375 0  0.375 0.84375 0  0.40625 0.84375 0  0.4375 0.84375 0  0.46875 0.84375 0  0.5 0.84375 0  0.53125 0.84375 0  0.5625 0.84375 0  0.59375 0.84375 0  0.625 0.84375 0  0.65625 0.84375 0  0.6875 0.84375 0  0.71875 0.84375 0  0.75 0.84375 0  0.78125 0.84375 0  0.8125 0.84375 0  0.84375 0.84375 0  0.875 0.84375 0  0.90625 0.84375 0  0.9375 0.84375 0  0.96875 0.84375 0  1 0.84375 0  0.03125 0.890625 0  0 0.890625 0  0.0625 0.890625 0  0.09375 0.890625 0  0.125 0.890625 0  0.15625 0.890625 0  0.1875 0.890625 0  0.21875 0.890625 0  0.25 0.890625 0  0.28125 0.890625 0  0.3125 0.890625 0  0.34375 0.890625 0  0.375 0.890625 0  0.40625 0.890625 0  0.4375 0.890625 0  0.46875 0.890625 0  0.5 0.890625 0  0.53125 0.890625 0  0.5625 0.890625 0  0.59375 0.890625 0  0.625 0.890625 0  0.65625 0.890625 0  0.6875 0.890625 0  0.71875 0.890625 0  0.75 0.890625 0  0.78125 0.890625 0  0.8125 0.890625 0  0.84375 0.890625 0  0.875 0.890625 0  0.90625 0.890625 0  0.9375 0.890625 0  0.96875 0.890625 0  1 0.890625 0  0.03125 0.9375 0  0 0.9375 0  0.0625 0.9375 0  0.09375 0.9375 0  0.125 0.9375 0  0.15625 0.9375 0  0.1875 0.9375 0  0.21875 0.9375 0  0.25 0.9375 0  0.28125 0.9375 0  0.3125 0.9375 0  0.34375 0.9375 0  0.375 0.9375 0  0.40625 0.9375 0  0.4375 0.9375 0  0.46875 0.9375 0  0.5 0.9375 0  0.53125 0.9375 0  0.5625 0.9375 0  0.59375 0.9375 0  0.625 0.9375 0  0.65625 0.9375 0  0.6875 0.9375 0  0.71875 0.9375 0  0.75 0.9375 0  0.78125 0.9375 0  0.8125 0.9375 0  0.84375 0.9375 0  0.875 0.9375 0  0.90625 0.9375 0  0.9375 0.9375 0  0.96875 0.9375 0  1 0.9375 0  0.03125 0.984375 0  0 0.984375 0  0.0625 0.984375 0  0.09375 0.984375 0  0.125 0.984375 0  0.15625 0.984375 0  0.1875 0.984375 0  0.21875 0.984375 0  0.25 0.984375 0  0.28125 0.984375 0  0.3125 0.984375 0  0.34375 0.984375 0  0.375 0.984375 0  0.40625 0.984375 0  0.4375 0.984375 0  0.46875 0.984375 0  0.5 0.984375 0  0.53125 0.984375 0  0.5625 0.984375 0  0.59375 0.984375 0  0.625 0.984375 0  0.65625 0.984375 0  0.6875 0.984375 0  0.71875 0.984375 0  0.75 0.984375 0  0.78125 0.984375 0  0.8125 0.984375 0  0.84375 0.984375 0  0.875 0.984375 0  0.90625 0.984375 0  0.9375 0.984375 0  0.96875 0.984375 0  1 0.984375 0  0.03125 1.03125 0  0 1.03125 0  0.0625 1.03125 0  0.09375 1.03125 0  0.125 1.03125 0  0.15625 1.03125 0  0.1875 1.03125 0  0.21875 1.03125 0  0.25 1.03125 0  0.28125 1.03125 0  0.3125 1.03125 0  0.34375 1.03125 0  0.375 1.03125 0  0.40625 1.03125 0  0.4375 1.03125 0  0.46875 1.03125 0  0.5 1.03125 0  0.53125 1.03125 0  0.5625 1.03125 0  0.59375 1.03125 0  0.625 1.03125 0  0.65625 1.03125 0  0.6875 1.03125 0  0.71875 1.03125 0  0.75 1.03125 0  0.78125 1.03125 0  0.8125 1.03125 0  0.84375 1.03125 0  0.875 1.03125 0  0.90625 1.03125 0  0.9375 1.03125 0  0.96875 1.03125 0  1 1.03125 0  0.03125 1.078125 0  0 1.078125 0  0.0625 1.078125 0  0.09375 1.078125 0  0.125 1.078125 0  0.15625 1.078125 0  0.1875 1.078125 0  0.21875 1.078125 0  0.25 1.078125 0  0.28125 1.078125 0  0.3125 1.078125 0  0.34375 1.078125 0  0.375 1.078125 0  0.40625 1.078125 0  0.4375 1.078125 0  0.46875 1.078125 0  0.5 1.078125 0  0.53125 1.078125 0  0.5625 1.078125 0  0.59375 1.078125 0  0.625 1.078125 0  0.65625 1.078125 0  0.6875 1.078125 0  0.71875 1.078125 0  0.75 1.078125 0  0.78125 1.078125 0  0.8125 1.078125 0  0.84375 1.078125 0  0.875 1.078125 0  0.90625 1.078125 0  0.9375 1.078125 0  0.96875 1.078125 0  1 1.078125 0  0.03125 1.125 0  0 1.125 0  0.0625 1.125 0  0.09375 1.125 0  0.125 1.125 0  0.15625 1.125 0  0.1875 1.125 0  0.21875 1.125 0  0.25 1.125 0  0.28125 1.125 0  0.3125 1.125 0  0.34375 1.125 0  0.375 1.125 0  0.40625 1.125 0  0.4375 1.125 0  0.46875 1.125 0  0.5 1.125 0  0.53125 1.125 0  0.5625 1.125 0  0.59375 1.125 0  0.625 1.125 0  0.65625 1.125 0  0.6875 1.125 0  0.71875 1.125 0  0.75 1.125 0  0.78125 1.125 0  0.8125 1.125 0  0.84375 1.125 0  0.875 1.125 0  0.90625 1.125 0  0.9375 1.125 0  0.96875 1.125 0  1 1.125 0  0.03125 1.171875 0  0 1.171875 0  0.0625 1.171875 0  0.09375 1.171875 0  0.125 1.171875 0  0.15625 1.171875 0  0.1875 1.171875 0  0.21875 1.171875 0  0.25 1.171875 0  0.28125 1.171875 0  0.3125 1.171875 0  0.34375 1.171875 0  0.375 1.171875 0  0.40625 1.171875 0  0.4375 1.171875 0  0.46875 1.171875 0  0.5 1.171875 0  0.53125 1.171875 0  0.5625 1.171875 0  0.59375 1.171875 0  0.625 1.171875 0  0.65625 1.171875 0  0.6875 1.171875 0  0.71875 1.171875 0  0.75 1.171875 0  0.78125 1.171875 0  0.8125 1.171875 0  0.84375 1.171875 0  0.875 1.171875 0  0.90625 1.171875 0  0.9375 1.171875 0  0.96875 1.171875 0  1 1.171875 0  0.03125 1.21875 0  0 1.21875 0  0.0625 1.21875 0  0.09375 1.21875 0  0.125 1.21875 0  0.15625 1.21875 0  0.1875 1.21875 0  0.21875 1.21875 0  0.25 1.21875 0  0.28125 1.21875 0  0.3125 1.21875 0  0.34375 1.21875 0  0.375 1.21875 0  0.40625 1.21875 0  0.4375 1.21875 0  0.46875 1.21875 0  0.5 1.21875 0  0.53125 1.21875 0  0.5
[...]
<PointData  Vectors="u"> 
<DataArray  type="Float64"  Name="u"  NumberOfComponents="3" format="ascii">1.3798193037326406e-02 7.1460379763120269e-04 0.0000000000000000e+00  1.5868489193618628e-02 3.9662343698847746e-03 0.0000000000000000e+00  1.7472201149106893e-02 4.2496539476059953e-03 0.0000000000000000e+00  1.5008308488030871e-02 9.3341601945248829e-04 0.0000000000000000e+00  1.5301266622212515e-02 7.2189946608190447e-03 0.0000000000000000e+00  1.7065223769046723e-02 7.8164611613914803e-03 0.0000000000000000e+00  1.4198759332609721e-02 1.0126371437501273e-02 0.0000000000000000e+00  1.5756558581260023e-02 1.0966792274832481e-02 0.0000000000000000e+00  1.2759814011667345e-02 1.2568851668994310e-02 0.0000000000000000e+00  1.4093600052151245e-02 1.3589107200651073e-02 0.0000000000000000e+00  1.1091714591537282e-02 1.4480895377435063e-02 0.0000000000000000e+00  1.2227810777035265e-02 1.5622034161944338e-02 0.0000000000000000e+00  9.2838015965548693e-03 1.5818509738568878e-02 0.0000000000000000e+00  1.0248372044348180e-02 1.7027502872736879e-02 0.0000000000000000e+00  7.4141871296696596e-03 1.6557971604132596e-02 0.0000000000000000e+00  8.2304878177032140e-03 1.7787865586212814e-02 0.0000000000000000e+00  5.5517491686880964e-03 1.6695500432058495e-02 0.0000000000000000e+00  6.2403348907293012e-03 1.7904924703408025e-02 0.0000000000000000e+00  3.7570676989440309e-03 1.6246019288391145e-02 0.0000000000000000e+00  4.3359705330294250e-03 1.7398781442446432e-02 0.0000000000000000e+00  2.0830027875082101e-03 1.5241515305821910e-02 0.0000000000000000e+00  2.5681435520586000e-03 1.6306186133669295e-02 0.0000000000000000e+00  5.7518636431382920e-04 1.3729080017126796e-02 0.0000000000000000e+00  9.8050021890137211e-04 1.4678721475121477e-02 0.0000000000000000e+00  -7.2762204805660452e-04 1.1768925459610587e-02 0.0000000000000000e+00  -3.8985816471513387e-04 1.2580792809634303e-02 0.0000000000000000e+00  -1.7931585776190717e-03 9.4323024911420143e-03 0.0000000000000000e+00  -1.5122172317258557e-03 1.0087676698833543e-02 0.0000000000000000e+00  -2.5954392958892503e-03 6.7995100562426060e-03 0.0000000000000000e+00  -2.3619147184484606e-03 7.2835121390912713e-03 0.0000000000000000e+00  -3.1145607895267792e-03 3.9578728987072721e-03 0.0000000000000000e+00  -2.9203033535160961e-03 4.2594050259803073e-03 0.0000000000000000e+00  -3.3365839198393169e-03 9.9980573328482271e-04 0.0000000000000000e+00  -3.1745387350053601e-03 1.1114947515504950e-03 0.0000000000000000e+00  -3.2534748138572469e-03 -1.9791551308709593e-03 0.0000000000000000e+00  -3.1176834034605029e-03 -2.0608938126254078e-03 0.0000000000000000e+00  -2.8631682079389965e-03 -4.8822921213462793e-03 0.0000000000000000e+00  -2.7487387923544656e-03 -5.1571686883786277e-03 0.0000000000000000e+00  -2.1696633008963461e-03 -7.6137268006917771e-03 0.0000000000000000e+00  -2.0728840922635307e-03 -8.0773844943453459e-03 0.0000000000000000e+00  -1.1832016478919055e-03 -1.0080481975401042e-02 0.0000000000000000e+00  -1.1016646017372044e-03 -1.0724280735211615e-02 0.0000000000000000e+00  7.9495778816847517e-05 -1.2194678771528217e-02 0.0000000000000000e+00  1.4657662178985042e-04 -1.3005391143511900e-02 0.0000000000000000e+00  1.5949206881749544e-03 -1.3875820314205442e-02 0.0000000000000000e+00  1.6463498954619256e-03 -1.4835322687514797e-02 0.0000000000000000e+00  3.3325171060024608e-03 -1.5053236580737348e-02 0.0000000000000000e+00  3.3645243601693464e-03 -1.6138137073712987e-02 0.0000000000000000e+00  5.2543754577961564e-03 -1.5668604784853758e-02 0.0000000000000000e+00  5.2599571093027656e-03 -1.6849892179490351e-02 0.0000000000000000e+00  7.3149886079548520e-03 -1.5678578471159128e-02 0.0000000000000000e+00  7.2829788689658861e-03 -1.6921229336526050e-02 0.0000000000000000e+00  9.4608464179459402e-03 -1.5057410726468079e-02 0.0000000000000000e+00  9.3750011993228941e-03 -1.6320007714568683e-02 0.0000000000000000e+00  1.1629195684141044e-02 -1.3799583291350507e-02 0.0000000000000000e+00  1.1467356385835764e-02 -1.5033835969480675e-02 0.0000000000000000e+00  1.3742526949466934e-02 -1.1922493248108734e-02 0.0000000000000000e+00  1.3477376820119137e-02 -1.3072555174844347e-02 0.0000000000000000e+00  1.5683047997663038e-02 -9.4702215179202666e-03 0.0000000000000000e+00  1.5289847705694155e-02 -1.0471243120982477e-02 0.0000000000000000e+00  1.7177615172258777e-02 -6.5250352859195964e-03 0.0000000000000000e+00  1.6673131857468253e-02 -7.2987627652404035e-03 0.0000000000000000e+00  1.7375945820261224e-02 -3.2790492407738475e-03 0.0000000000000000e+00  1.6944988983900084e-02 -3.7106111162854326e-03 0.0000000000000000e+00  1.4762090026743429e-02 -3.0174095310535267e-04 0.0000000000000000e+00  1.4192236281295156e-02 -4.1284538852102591e-04 0.0000000000000000e+00  1.9373715916899261e-02 5.0471224906081837e-03 0.0000000000000000e+00  1.6840866184797149e-02 1.4004711545543703e-03 0.0000000000000000e+00  1.8846338149718429e-02 9.2724658150367210e-03 0.0000000000000000e+00  1.7463699896722105e-02 1.2951404111297400e-02 0.0000000000000000e+00  1.5692727143542112e-02 1.5957127394811428e-02 0.0000000000000000e+00  1.3700362833586461e-02 1.8241376976398046e-02 0.0000000000000000e+00  1.1588843907632738e-02 1.9780060939039747e-02 0.0000000000000000e+00  9.4397115046702864e-03 2.0568818718846082e-02 0.0000000000000000e+00  7.3233729434303571e-03 2.0622073508853936e-02 0.0000000000000000e+00  5.3015726417878660e-03 1.9971713196721062e-02 0.0000000000000000e+00  3.4275627766096788e-03 1.8665564345279512e-02 0.0000000000000000e+00  1.7470994447769169e-03 1.6765522956890561e-02 0.0000000000000000e+00  2.9850254437049418e-04 1.4345740363433796e-02 0.0000000000000000e+00  -8.8645075705551344e-04 1.1490644238396460e-02 0.0000000000000000e+00  -1.7825938011050751e-03 8.2931709891261307e-03 0.0000000000000000e+00  -2.3707163388175675e-03 4.8528861100169372e-03 0.0000000000000000e+00  -2.6376785163357494e-03 1.2743260799236639e-03 0.0000000000000000e+00  -2.5761162168491314e-03 -2.3347864415353427e-03 0.0000000000000000e+00  -2.1847742054518001e-03 -5.8651814738510197e-03 0.0000000000000000e+00  -1.4684888973922636e-03 -9.2078647680226590e-03 0.0000000000000000e+00  -4.3874067479913461e-04 -1.2255909119465157e-02 0.0000000000000000e+00  8.8605877259942184e-04 -1.4906482018528920e-02 0.0000000000000000e+00  2.4797796058566293e-03 -1.7062938506094479e-02 0.0000000000000000e+00  4.3081865643991068e-03 -1.8637166128244929e-02 0.0000000000000000e+00  6.3280643463091285e-03 -1.9552008458209195e-02 0.0000000000000000e+00  8.4868061425216589e-03 -1.9743862151893294e-02 0.0000000000000000e+00  1.0721538261783863e-02 -1.9165227504495425e-02 0.0000000000000000e+00  1.2958055065729696e-02 -1.7787217506185900e-02 0.0000000000000000e+00  1.5106130039974304e-02 -1.5601887779986169e-02 0.0000000000000000e+00  1.7038921590144907e-02 -1.2625182675243802e-02 0.0000000000000000e+00  1.8496021695598316e-02 -8.9067393889523897e-03 0.0000000000000000e+00  1.8676866329234834e-02 -4.6063063109540465e-03 0.0000000000000000e+00  1.5288672984682171e-02 -8.6006401462124520e-04 0.0000000000000000e+00  2.2253067175662507e-02 6.0118431747545591e-03 0.0000000000000000e+00  1.9431077772669975e-02 1.8669069346938208e-03 0.0000000000000000e+00  2.1647404635239707e-02 1.1004578219321057e-02 0.0000000000000000e+00  2.0145100746337539e-02 1.5302824417919917e-02 0.0000000000000000e+00  1.8230003221159759e-02 1.8758535873227261e-02 0.0000000000000000e+00  1.6076587874232450e-02 2.1335974962659841e-02 0.0000000000000000e+00  1.3794740888028666e-02 2.3027235540826706e-02 0.0000000000000000e+00  1.1473945162071585e-02 2.3844227554131320e-02 0.0000000000000000e+00  9.1917641842217818e-03 2.3816890459497857e-02 0.0000000000000000e+00  7.0148078534352050e-03 2.2991763410526486e-02 0.0000000000000000e+00  5.0006587912122102e-03 2.1430270013881342e-02 0.0000000000000000e+00  3.1975007962639474e-03 1.9206967157906232e-02 0.0000000000000000e+00  1.6459133894210247e-03 1.6407620216356819e-02 0.0000000000000000e+00  3.7854821516149651e-04 1.3127504130527901e-02 0.0000000000000000e+00  -5.7833801285806224e-04 9.4695871702721764e-03 0.0000000000000000e+00  -1.2052623204981687e-03 5.5430630577182234e-03 0.0000000000000000e+00  -1.4883532938650612e-03 1.4617107874760383e-03 0.0000000000000000e+00  -1.4199463945187448e-03 -2.6574061359210675e-03 0.0000000000000000e+00  -9.9799847670686750e-04 -6.6955029569561782e-03 0.0000000000000000e+00  -2.2691053891989068e-04 -1.0533419376281378e-02 0.0000000000000000e+00  8.8254108136190152e-04 -1.4053311102182782e-02 0.0000000000000000e+00  2.3120272580980945e-03 -1.7140285889218818e-02 0.0000000000000000e+00  4.0353413191472143e-03 -1.9684418781750444e-02 0.0000000000000000e+00  6.0170396373382300e-03 -2.1582842342926543e-02 0.0000000000000000e+00  8.2119640692201821e-03 -2.2742166020691873e-02 0.0000000000000000e+00  1.0563862077657471e-02 -2.3080972365223964e-02 0.0000000000000000e+00  1.3004933210605168e-02 -2.2532463051084556e-02 0.0000000000000000e+00  1.5453812909654882e-02 -2.1047022465263361e-02 0.0000000000000000e+00  1.7810618160578964e-02 -1.8594819609826528e-02 0.0000000000000000e+00  1.9931609221482682e-02 -1.5169436422040408e-02 0.0000000000000000e+00  2.1511267376127213e-02 -1.0801508451654337e-02 0.0000000000000000e+00  2.1584207757790463e-02 -5.6681131357609301e-03 0.0000000000000000e+00  1.7451238019960829e-02 -1.3609638346584422e-03 0.0000000000000000e+00  2.6128513942926687e-02 7.0794284116614918e-03 0.0000000000000000e+00  2.2820951011484632e-02 2.3513858130022368e-03 0.0000000000000000e+00  2.5472487038273591e-02 1.2917003236238667e-02 0.0000000000000000e+00  2.3838371902779869e-02 1.7892092313372739e-02 0.0000000000000000e+00  2.1760014542366920e-02 2.1836165520120607e-02 0.0000000000000000e+00  1.9425081914951348e-02 2.4727882350823883e-02 0.0000000000000000e+00  1.6953763979444147e-02 2.6577671246826490e-02 0.0000000000000000e+00  1.4444934834544959e-02 2.7416164072546819e-02 0.0000000000000000e+00  1.1982707194466320e-02 2.7291416034065444e-02 0.0000000000000000e+00  9.6398674603273855e-03 2.6267055996763072e-02 0.0000000000000000e+00  7.4771843656700216e-03 2.4420333980121698e-02 0.0000000000000000e+00  5.5460705886084781e-03 2.1840222351030454e-02 0.0000000000000000e+00  3.8877943894107562e-03 1.8625567564154670e-02 0.0000000000000000e+00  2.5363744035426994e-03 1.4883357050219736e-02 0.0000000000000000e+00  1.5175998431161046e-03 1.0727271618748369e-02 0.0000000000000000e+00  8.5164839012677180e-04 6.2762479072088762e-03 0.0000000000000000e+00  5.5194649452124643e-04 1.6534471330819566e-03 0.0000000000000000e+00  6.2709170142669578e-04 -3.0149733812621592e-03 0.0000000000000000e+00  1.0793465071237075e-03 -7.6006895070157036e-03 0.0000000000000000e+00  1.9057407344115576e-03 -1.1974450591028692e-02 0.0000000000000000e+00  3.0962280109190100e-03 -1.6007075340095565e-02 0.0000000000000000e+00  4.6338967650936709e-03 -1.9570976189976445e-02 0.0000000000000000e+00  6.4928085844845086e-03 -2.2541667739579937e-02 0.0000000000000000e+00  8.6377100444567246e-03 -2.4799795216313817e-02 0.0000000000000000e+00  1.1021807687453171e-02 -2.6233330068727145e-02 0.0000000000000000e+00  1.3586262875716956e-02 -2.6740153027937516e-02 0.0000000000000000e+00  1.6258234194800769e-02 -2.6230809809824781e-02 0.0000000000000000e+00  1.8949515707377896e-02 -2.4631437547147337e-02 0.0000000000000000e+00  2.1549506450009300e-02 -2.1886966047180434e-02 0.0000000000000000e+00  2.3895252505097470e-02 -1.7966063845094530e-02 0.0000000000000000e+00  2.5626250038311697e-02 -1.2879589530988271e-02 0.0000000000000000e+00  2.5574531849995065e-02 -6.8247573936461694e-03 0.0000000000000000e+00  2.0498936679646366e-02 -1.8594036326073163e-03 0.0000000000000000e+00  3.1046068926715735e-02 8.2458679644139121e-03 0.0000000000000000e+00  2.7052304901816190e-02 2.8755442583515201e-03 0.0000000000000000e+00  3.0367404370004288e-02 1.5000416192035522e-02 0.0000000000000000e+00  2.8597510144219417e-02 2.0704691363118276e-02 0.0000000000000000e+00  2.6349895531642690e-02 2.5169872663487500e-02 0.0000000000000000e+00  2.3831619440956756e-02 2.8390871118223880e-02 0.0000000000000000e+00  2.1174892145972561e-02 3.0399302408307724e-02 0.0000000000000000e+00  1.8486671998134079e-02 3.1247528965041266e-02 0.0000000000000000e+00  1.5858401213092281e-02 3.1004841604686379e-02 0.0000000000000000e+00  1.3366455410268598e-02 2.9754767139943673e-02 0.0000000000000000e+00  1.1075177369790650e-02 2.7592877446955547e-02 0.0000000000000000e+00  9.0359687813122130e-03 2.4624493902767809e-02 0.0000000000000000e+00  7.2911642775977123e-03 2.0962914697493947e-02 0.0000000000000000e+00  5.8728165335212683e-03 1.6727687141393284e-02 0.0000000000000000e+00  4.8068752274235127e-03 1.2043410988097931e-02 0.0000000000000000e+00  4.1113320754725922e-03 7.0387129441890264e-03 0.0000000000000000e+00  3.8002302135994076e-03 1.8455072303136257e-03 0.0000000000000000e+00  3.8811108918796779e-03 -3.4014713257063266e-03 0.0000000000000000e+00  4.3580570444189540e-03 -8.5652349649573255e-03 0.0000000000000000e+00  5.2286919368237398e-03 -1.3506838927166986e-02 0.0000000000000000e+00  6.4858970071897072e-03 -1.8086152259575029e-02 0.0000000000000000e+00  8.1144521041338503e-03 -2.2162522101223645e-02 0.0000000000000000e+00  1.0091353650731966e-02 -2.5596112436217462e-02 0.0000000000000000e+00  1.2382526428457960e-02 -2.8249416408042793e-02 0.0000000000000000e+00  1.4942268148061438e-02 -2.9989422665549510e-02 0.0000000000000000e+00  1.7710314883387555e-02 -3.0690176870177086e-02 0.0000000000000000e+00  2.0610994656756323e-02 -3.0235830063378672e-02 0.0000000000000000e+00  2.3549882327715696e-02 -2.8524129286872743e-02 0.0000000000000000e+00  2.6406372040183181e-02 -2.5470518995481115e-02 0.0000000000000000e+00  2.8995979428570465e-02 -2.1014861018929250e-02 0.0000000000000000e+00  3.0893088537598166e-02 -1.5145303151495208e-02 0.0000000000000000e+00  3.0681658400714788e-02 -8.0797752498047524e-03 0.0000000000000000e+00  2.4422605769220354e-02 -2.3745438961466614e-03 0.0000000000000000e+00  3.7098844912440941e-02 9.5115456000669195e-03 0.0000000000000000e+00  3.2198805722007423e-02 3.4562656318634444e-03 0.0000000000000000e+00  3.6430350699542875e-02 1.7251169755027065e-02 0.0000000000000000e+00  3.4530219016457683e-02 2.3731425575739942e-02 0.0000000000000000e+00  3.2121239556970743e-02 2.8742620994297193e-02 0.0000000000000000e+00  2.9436782760005296e-02 3.2299135072745469e-02 0.0000000000000000e+00  2.6620864056136936e-02 3.4457534990721704e-02 0.0000000000000000e+00  2.3788728900178389e-02 3.5296016418854326e-02 0.0000000000000000e+00  2.1036062413533275e-02 3.4908889613410127e-02 0.0000000000000000e+00  1.8442161398222058e-02 3.3403145616432199e-02 0.0000000000000000e+00  1.6070467551981552e-02 3.0895414195173596e-02 0.0000000000000000e+00  1.3971796771825550e-02 2.7509588669679088e-02 0.0000000000000000e+00  1.2184418944925467e-02 2.3374631075558018e-02 0.0000000000000000e+00  1.0738652335134569e-02 1.8623281371907257e-02 0.0000000000000000e+00  9.6556015173592507e-03 1.3390841945602385e-02 0.0000000000000000e+00  8.9524827420487639e-03 7.8149104345344375e-03 0.0000000000000000e+00  8.6398130174136240e-03 2.0350124643774459e-03 0.0000000000000000e+00  8.7265844093146298e-03 -3.8070376896530015e-03 0.0000000000000000e+00  9.2160027565992841e-03 -9.5669608065739216e-03 0.0000000000000000e+00  1.0109593083754644e-02 -1.5097608117220768e-02 0.0000000000000000e+00  1.1402312958949655e-02 -2.0248737221176195e-02 0.0000000000000000e+00  1.3084513474773907e-02 -2.4867179774614764e-02 0.0000000000000000e+00  1.5137081402472741e-02 -2.8797265939943584e-02 0.0000000000000000e+00  1.7531332897885783e-02 -3.1882092835754071e-02 0.0000000000000000e+00  2.0224790206345041e-02 -3.3965262806914996e-02 0.0000000000000000e+00  2.3159753106612644e-02 -3.4893572683491060e-02 0.0000000000000000e+00  2.6260020804366624e-02 -3.4520366172562128e-02 0.0000000000000000e+00  2.9427824316486516e-02 -3.2709765105383933e-02 0.0000000000000000e+00  3.2533430380588833e-02 -2.9341993703923170e-02 0.0000000000000000e+00  3.5369543003559843e-02 -2.4322195289984118e-02 0.0000000000000000e+00  3.7433693886709918e-02 -1.7610528220224166e-02 0.0000000000000000e+00  3.7009310647975066e-02 -9.4449631383130457e-03 0.0000000000000000e+00  2.9281445400509792e-02 -2.9310203317567049e-03 0.0000000000000000e+00  4.4417005165199613e-02 1.0872231173012411e-02 0.0000000000000000e+00  3.8361010194358641e-02 4.1071535661549047e-03 0.0000000000000000e+00  4.3800640021104301e-02 1.9656609630667787e-02 0.0000000000000000e+00  4.1786299138193934e-02 2.6947820021876904e-02 0.0000000000000000e+00  3.9239507045117299e-02 3.2515539411226584e-02 0.0000000000000000e+00  3.6426038167150801e-02 3.6398495440459276e-02 0.0000000000000000e+00  3.3502439795296532e-02 3.8683725814894564e-02 0.0000000000000000e+00  3.0590138083015715e-02 3.9480737111173260e-02 0.0000000000000000e+00  2.7786894196453051e-02 3.8913919845701611e-02 0.0000000000000000e+00  2.5170418798227887e-02 3.7117964359109877e-02 0.0000000000000000e+00  2.2800500216110187e-02 3.4233943166665733e-02 0.0000000000000000e+00  2.0721475744862321e-02 3.0406434595203116e-02 0.0000000000000000e+00  1.8965684733289318e-02 2.5781318659310749e-02 0.0000000000000000e+00  1.7555252324483996e-02 2.0504408876948450e-02 0.0000000000000000e+00  1.6506560018738445e-02 1.4721039542918051e-02 0.0000000000000000e+00  1.5829856646690340e-02 8.5759304231997607e-03 0.0000000000000000e+00  1.5534615815131650e-02 2.2142252636753244e-03 0.0000000000000000e+00  1.5626316170620578e-02 -4.2178700241490398e-03 0.0000000000000000e+00  1.6111632786158948e-02 -1.0571293891176057e-02 0.0000000000000000e+00  1.6993122370621883e-02 -1.6693190583240518e-02 0.0000000000000000e+00  1.8273075217875096e-02 -2.2425317515137315e-02 0.0000000000000000e+00  1.9947275751197230e-02 -2.7603296089699011e-02 0.0000000000000000e+00  2.2006118621425413e-02 -3.2056211487995173e-02 0.0000000000000000e+00  2.4428844996718498e-02 -3.5606904196509762e-02 0.0000000000000000e+00  2.7181924550447177e-02 -3.8073538669264349e-02 0.0000000000000000e+00  3.0214288705804313e-02 -3.9271919868313868e-02 0.0000000000000000e+00  3.3454300330750059e-02 -3.9019425284949963e-02 0.0000000000000000e+00  3.6804532541928503e-02 -3.7139926732423369e-02 0.0000000000000000e+00  4.0128855711886659e-02 -3.3470720819949687e-02 0.0000000000000000e+00  4.3196182333569012e-02 -2.7873835804664293e-02 0.0000000000000000e+00  4.5414494009407405e-02 -2.0273358761863196e-02 0.0000000000000000e+00  4.4705932204905464e-02 -1.0924951268615974e-02 0.0000000000000000e+00  3.5174197515072531e-02 -3.5486334256624613e-03 0.0000000000000000e+00  5.3161239256852302e-02 1.2317261599795896e-02 0.0000000000000000e+00  4.5661049674062607e-02 4.8399786856257168e-03 0.0000000000000000e+00  5.2650095565673051e-02 2.2190654917219905e-02 0.0000000000000000e+00  5.0549769144963487e-02 3.0308059270061825e-02 0.0000000000000000e+00  4.7906426888152352e-02 3.6420164053449264e-02 0.0000000000000000e+00  4.5024985362527567e-02 4.0597252906621223e-02 0.0000000000000000e+00  4.2074471770816586e-02 4.2964833264926165e-02 0.0000000000000000e+00  3.9179781148722392e-02 4.3671140979551944e-02 0.0000000000000000e+00  3.6436486426249547e-02 4.2877381081217136e-02 0.0000000000000000e+00  3.3915696665954523e-02 4.0751153129667386e-02 0.0000000000000000e+00  3.1667453922988524e-02 3.7461890856611176e-02 0.0000000000000000e+00  2.9724546664601614e-02 3.3177028892758288e-02 0.0000000000000000e+00  2.8106695665012546e-02 2.8060069392650409e-02 0.0000000000000000e+00  2.6824567407257294e-02 2.2269276176084856e-02 0.0000000000000000e+00  2.5883185267268866e-02 1.5957950394235792e-02 0.0000000000000000e+00  2.5285494126601433e-02 9.2753477342198305e-03 0.0000000000000000e+00  2.5033872369306650e-02 2.3683023509293026e-03 0.0000000000000000e+00  2.5133215489068238e-02 -4.6162049788622019e-03 0.0000000000000000e+0