<?xml version="1.0"?>
<VTKFile type="UnstructuredGrid"  version="0.1"  >
<UnstructuredGrid>
<Piece  NumberOfPoints="759" NumberOfCells="1408">
<Points>
<DataArray  type="Float64"  NumberOfComponents="3"  format="ascii">0 0.46875 0  0.03125 0.46875 0  0.03125 0.515625 0  0 0.515625 0  0.0625 0.46875 0  0.0625 0.515625 0  0.09375 0.46875 0  0.09375 0.515625 0  0.125 0.46875 0  0.125 0.515625 0  0.15625 0.46875 0  0.15625 0.515625 0  0.1875 0.46875 0  0.1875 0.515625 0  0.21875 0.46875 0  0.21875 0.515625 0  0.25 0.46875 0  0.25 0.515625 0  0.28125 0.46875 0  0.28125 0.515625 0  0.3125 0.46875 0  0.3125 0.515625 0  0.34375 0.46875 0  0.34375 0.515625 0  0.375 0.46875 0  0.375 0.515625 0  0.40625 0.46875 0  0.40625 0.515625 0  0.4375 0.46875 0  0.4375 0.515625 0  0.46875 0.46875 0  0.46875 0.515625 0  0.5 0.46875 0  0.5 0.515625 0  0.53125 0.46875 0  0.53125 0.515625 0  0.5625 0.46875 0  0.5625 0.515625 0  0.59375 0.46875 0  0.59375 0.515625 0  0.625 0.46875 0  0.625 0.515625 0  0.65625 0.46875 0  0.65625 0.515625 0  0.6875 0.46875 0  0.6875 0.515625 0  0.71875 0.46875 0  0.71875 0.515625 0  0.75 0.46875 0  0.75 0.515625 0  0.78125 0.46875 0  0.78125 0.515625 0  0.8125 0.46875 0  0.8125 0.515625 0  0.84375 0.46875 0  0.84375 0.515625 0  0.875 0.46875 0  0.875 0.515625 0  0.90625 0.46875 0  0.90625 0.515625 0  0.9375 0.46875 0  0.9375 0.515625 0  0.96875 0.46875 0  0.96875 0.515625 0  1 0.46875 0  1 0.515625 0  0.03125 0.5625 0  0 0.5625 0  0.0625 0.5625 0  0.09375 0.5625 0  0.125 0.5625 0  0.15625 0.5625 0  0.1875 0.5625 0  0.21875 0.5625 0  0.25 0.5625 0  0.28125 0.5625 0  0.3125 0.5625 0  0.34375 0.5625 0  0.375 0.5625 0  0.40625 0.5625 0  0.4375 0.5625 0  0.46875 0.5625 0  0.5 0.5625 0  0.53125 0.5625 0  0.5625 0.5625 0  0.59375 0.5625 0  0.625 0.5625 0  0.65625 0.5625 0  0.6875 0.5625 0  0.71875 0.5625 0  0.75 0.5625 0  0.78125 0.5625 0  0.8125 0.5625 0  0.84375 0.5625 0  0.875 0.5625 0  0.90625 0.5625 0  0.9375 0.5625 0  0.96875 0.5625 0  1 0.5625 0  0.03125 0.609375 0  0 0.609375 0  0.0625 0.609375 0  0.09375 0.609375 0  0.125 0.609375 0  0.15625 0.609375 0  0.1875 0.609375 0  0.21875 0.609375 0  0.25 0.609375 0  0.28125 0.609375 0  0.3125 0.609375 0  0.34375 0.609375 0  0.375 0.609375 0  0.40625 0.609375 0  0.4375 0.609375 0  0.46875 0.609375 0  0.5 0.609375 0  0.53125 0.609375 0  0.5625 0.609375 0  0.59375 0.609375 0  0.625 0.609375 0  0.65625 0.609375 0  0.6875 0.609375 0  0.71875 0.609375 0  0.75 0.609375 0  0.78125 0.609375 0  0.8125 0.609375 0  0.84375 0.609375 0  0.875 0.609375 0  0.90625 0.609375 0  0.9375 0.609375 0  0.96875 0.609375 0  1 0.609375 0  0.03125 0.65625 0  0 0.65625 0  0.0625 0.65625 0  0.09375 0.65625 0  0.125 0.65625 0  0.15625 0.65625 0  0.1875 0.65625 0  0.21875 0.65625 0  0.25 0.65625 0  0.28125 0.65625 0  0.3125 0.65625 0  0.34375 0.65625 0  0.375 0.65625 0  0.40625 0.65625 0  0.4375 0.65625 0  0.46875 0.65625 0  0.5 0.65625 0  0.53125 0.65625 0  0.5625 0.65625 0  0.59375 0.65625 0  0.625 0.65625 0  0.65625 0.65625 0  0.6875 0.65625 0  0.71875 0.65625 0  0.75 0.65625 0  0.78125 0.65625 0  0.8125 0.65625 0  0.84375 0.65625 0  0.875 0.65625 0  0.90625 0.65625 0  0.9375 0.65625 0  0.96875 0.65625 0  1 0.65625 0  0.03125 0.703125 0  0 0.703125 0  0.0625 0.703125 0  0.09375 0.703125 0  0.125 0.703125 0  0.15625 0.703125 0  0.1875 0.703125 0  0.21875 0.703125 0  0.25 0.703125 0  0.28125 0.703125 0  0.3125 0.703125 0  0.34375 0.703125 0  0.375 0.703125 0  0.40625 0.703125 0  0.4375 0.703125 0  0.46875 0.703125 0  0.5 0.703125 0  0.53125 0.703125 0  0.5625 0.703125 0  0.59375 0.703125 0  0.625 0.703125 0  0.65625 0.703125 0  0.6875 0.703125 0  0.71875 0.703125 0  0.75 0.703125 0  0.78125 0.703125 0  0.8125 0.703125 0  0.84375 0.703125 0  0.875 0.703125 0  0.90625 0.703125 0  0.9375 0.703125 0  0.96875 0.703125 0  1 0.703125 0  0.03125 0.75 0  0 0.75 0  0.0625 0.75 0  0.09375 0.75 0  0.125 0.75 0  0.15625 0.75 0  0.1875 0.75 0  0.21875 0.75 0  0.25 0.75 0  0.28125 0.75 0  0.3125 0.75 0  0.34375 0.75 0  0.375 0.75 0  0.40625 0.75 0  0.4375 0.75 0  0.46875 0.75 0  0.5 0.75 0  0.53125 0.75 0  0.5625 0.75 0  0.59375 0.75 0  0.625 0.75 0  0.65625 0.75 0  0.6875 0.75 0  0.71875 0.75 0  0.75 0.75 0  0.78125 0.75 0  0.8125 0.75 0  0.84375 0.75 0  0.875 0.75 0  0.90625 0.75 0  0.9375 0.75 0  0.96875 0.75 0  1 0.75 0  0.03125 0.796875 0  0 0.796875 0  0.0625 0.796875 0  0.09375 0.796875 0  0.125 0.796875 0  0.15625 0.796875 0  0.1875 0.796875 0  0.21875 0.796875 0  0.25 0.796875 0  0.28125 0.796875 0  0.3125 0.796875 0  0.34375 0.796875 0  0.375 0.796875 0  0.40625 0.796875 0  0.4375 0.796875 0  0.46875 0.796875 0  0.5 0.796875 0  0.53125 0.796875 0  0.5625 0.796875 0  0.59375 0.796875 0  0.625 0.796875 0  0.65625 0.796875 0  0.6875 0.796875 0  0.71875 0.796875 0  0.75 0.796875 0  0.78125 0.796875 0  0.8125 0.796875 0  0.84375 0.796875 0  0.875 0.796875 0  0.90625 0.796875 0  0.9375 0.796875 0  0.96875 0.796875 0  1 0.796875 0  0.03125 0.84375 0  0 0.84375 0  0.0625 0.84375 0  0.09375 0.84375 0  0.125 0.84375 0  0.15625 0.84375 0  0.1875 0.84375 0  0.21875 0.84375 0  0.25 0.84375 0  0.28125 0.84375 0  0.3125 0.84375 0  0.34375 0.84375 0  0.375 0.84375 0  0.40625 0.84375 0  0.4375 0.84375 0  0.46875 0.84375 0  0.5 0.84375 0  0.53125 0.84375 0  0.5625 0.84375 0  0.59375 0.84375 0  0.625 0.84375 0  0.65625 0.84375 0  0.6875 0.84375 0  0.71875 0.84375 0  0.75 0.84375 0  0.78125 0.84375 0  0.8125 0.84375 0  0.84375 0.84375 0  0.875 0.84375 0  0.90625 0.84375 0  0.9375 0.84375 0  0.96875 0.84375 0  1 0.84375 0  0.03125 0.890625 0  0 0.890625 0  0.0625 0.890625 0  0.09375 0.890625 0  0.125 0.890625 0  0.15625 0.890625 0  0.1875 0.890625 0  0.21875 0.890625 0  0.25 0.890625 0  0.28125 0.890625 0  0.3125 0.890625 0  0.34375 0.890625 0  0.375 0.890625 0  0.40625 0.890625 0  0.4375 0.890625 0  0.46875 0.890625 0  0.5 0.890625 0  0.53125 0.890625 0  0.5625 0.890625 0  0.59375 0.890625 0  0.625 0.890625 0  0.65625 0.890625 0  0.6875 0.890625 0  0.71875 0.890625 0  0.75 0.890625 0  0.78125 0.890625 0  0.8125 0.890625 0  0.84375 0.890625 0  0.875 0.890625 0  0.90625 0.890625 0  0.9375 0.890625 0  0.96875 0.890625 0  1 0.890625 0  0.03125 0.9375 0  0 0.9375 0  0.0625 0.9375 0  0.09375 0.9375 0  0.125 0.9375 0  0.15625 0.9375 0  0.1875 0.9375 0  0.21875 0.9375 0  0.25 0.9375 0  0.28125 0.9375 0  0.3125 0.9375 0  0.34375 0.9375 0  0.375 0.9375 0  0.40625 0.9375 0  0.4375 0.9375 0  0.46875 0.9375 0  0.5 0.9375 0  0.53125 0.9375 0  0.5625 0.9375 0  0.59375 0.9375 0  0.625 0.9375 0  0.65625 0.9375 0  0.6875 0.9375 0  0.71875 0.9375 0  0.75 0.9375 0  0.78125 0.9375 0  0.8125 0.9375 0  0.84375 0.9375 0  0.875 0.9375 0  0.90625 0.9375 0  0.9375 0.9375 0  0.96875 0.9375 0  1 0.9375 0  0.03125 0.984375 0  0 0.984375 0  0.0625 0.984375 0  0.09375 0.984375 0  0.125 0.984375 0  0.15625 0.984375 0  0.1875 0.984375 0  0.21875 0.984375 0  0.25 0.984375 0  0.28125 0.984375 0  0.3125 0.984375 0  0.34375 0.984375 0  0.375 0.984375 0  0.40625 0.984375 0  0.4375 0.984375 0  0.46875 0.984375 0  0.5 0.984375 0  0.53125 0.984375 0  0.5625 0.984375 0  0.59375 0.984375 0  0.625 0.984375 0  0.65625 0.984375 0  0.6875 0.984375 0  0.71875 0.984375 0  0.75 0.984375 0  0.78125 0.984375 0  0.8125 0.984375 0  0.84375 0.984375 0  0.875 0.984375 0  0.90625 0.984375 0  0.9375 0.984375 0  0.96875 0.984375 0  1 0.984375 0  0.03125 1.03125 0  0 1.03125 0  0.0625 1.03125 0  0.09375 1.03125 0  0.125 1.03125 0  0.15625 1.03125 0  0.1875 1.03125 0  0.21875 1.03125 0  0.25 1.03125 0  0.28125 1.03125 0  0.3125 1.03125 0  0.34375 1.03125 0  0.375 1.03125 0  0.40625 1.03125 0  0.4375 1.03125 0  0.46875 1.03125 0  0.5 1.03125 0  0.53125 1.03125 0  0.5625 1.03125 0  0.59375 1.03125 0  0.625 1.03125 0  0.65625 1.03125 0  0.6875 1.03125 0  0.71875 1.03125 0  0.75 1.03125 0  0.78125 1.03125 0  0.8125 1.03125 0  0.84375 1.03125 0  0.875 1.03125 0  0.90625 1.03125 0  0.9375 1.03125 0  0.96875 1.03125 0  1 1.03125 0  0.03125 1.078125 0  0 1.078125 0  0.0625 1.078125 0  0.09375 1.078125 0  0.125 1.078125 0  0.15625 1.078125 0  0.1875 1.078125 0  0.21875 1.078125 0  0.25 1.078125 0  0.28125 1.078125 0  0.3125 1.078125 0  0.34375 1.078125 0  0.375 1.078125 0  0.40625 1.078125 0  0.4375 1.078125 0  0.46875 1.078125 0  0.5 1.078125 0  0.53125 1.078125 0  0.5625 1.078125 0  0.59375 1.078125 0  0.625 1.078125 0  0.65625 1.078125 0  0.6875 1.078125 0  0.71875 1.078125 0  0.75 1.078125 0  0.78125 1.078125 0  0.8125 1.078125 0  0.84375 1.078125 0  0.875 1.078125 0  0.90625 1.078125 0  0.9375 1.078125 0  0.96875 1.078125 0  1 1.078125 0  0.03125 1.125 0  0 1.125 0  0.0625 1.125 0  0.09375 1.125 0  0.125 1.125 0  0.15625 1.125 0  0.1875 1.125 0  0.21875 1.125 0  0.25 1.125 0  0.28125 1.125 0  0.3125 1.125 0  0.34375 1.125 0  0.375 1.125 0  0.40625 1.125 0  0.4375 1.125 0  0.46875 1.125 0  0.5 1.125 0  0.53125 1.125 0  0.5625 1.125 0  0.59375 1.125 0  0.625 1.125 0  0.65625 1.125 0  0.6875 1.125 0  0.71875 1.125 0  0.75 1.125 0  0.78125 1.125 0  0.8125 1.125 0  0.84375 1.125 0  0.875 1.125 0  0.90625 1.125 0  0.9375 1.125 0  0.96875 1.125 0  1 1.125 0  0.03125 1.171875 0  0 1.171875 0  0.0625 1.171875 0  0.09375 1.171875 0  0.125 1.171875 0  0.15625 1.171875 0  0.1875 1.171875 0  0.21875 1.171875 0  0.25 1.171875 0  0.28125 1.171875 0  0.3125 1.171875 0  0.34375 1.171875 0  0.375 1.171875 0  0.40625 1.171875 0  0.4375 1.171875 0  0.46875 1.171875 0  0.5 1.171875 0  0.53125 1.171875 0  0.5625 1.171875 0  0.59375 1.171875 0  0.625 1.171875 0  0.65625 1.171875 0  0.6875 1.171875 0  0.71875 1.171875 0  0.75 1.171875 0  0.78125 1.171875 0  0.8125 1.171875 0  0.84375 1.171875 0  0.875 1.171875 0  0.90625 1.171875 0  0.9375 1.171875 0  0.96875 1.171875 0  1 1.171875 0  0.03125 1.21875 0  0 1.21875 0  0.0625 1.21875 0  0.09375 1.21875 0  0.125 1.21875 0  0.15625 1.21875 0  0.1875 1.21875 0  0.21875 1.21875 0  0.25 1.21875 0  0.28125 1.21875 0  0.3125 1.21875 0  0.34375 1.21875 0  0.375 1.21875 0  0.40625 1.21875 0  0.4375 1.21875 0  0.46875 1.21875 0  0.5 1.21875 0  0.53125 1.21875 0  0.5
[...]
<PointData  Vectors="u"> 
<DataArray  type="Float64"  Name="u"  NumberOfComponents="3" format="ascii">6.4980162316571194e-03 4.6744922030806388e-04 0.0000000000000000e+00  7.0270975848607184e-03 1.6990111412858266e-03 0.0000000000000000e+00  7.8048284252593613e-03 1.8966450900645101e-03 0.0000000000000000e+00  7.1911030497320300e-03 6.2595972714201429e-04 0.0000000000000000e+00  6.5181706958507574e-03 2.9742453405763977e-03 0.0000000000000000e+00  7.3448943889908190e-03 3.3826811387386159e-03 0.0000000000000000e+00  5.6921838277024881e-03 4.1008895220291030e-03 0.0000000000000000e+00  6.4502309259500496e-03 4.6775304740495783e-03 0.0000000000000000e+00  4.6507628145008384e-03 5.0239364483088559e-03 0.0000000000000000e+00  5.3210889366657518e-03 5.7284709018591753e-03 0.0000000000000000e+00  3.4584575959490261e-03 5.7207054928043993e-03 0.0000000000000000e+00  4.0395867107838410e-03 6.5138153680230938e-03 0.0000000000000000e+00  2.1729491931295492e-03 6.1786209961015703e-03 0.0000000000000000e+00  2.6667214050994344e-03 7.0235590798834041e-03 0.0000000000000000e+00  8.4701731772925527e-04 6.3935026623391138e-03 0.0000000000000000e+00  1.2570850111579823e-03 7.2566386901887605e-03 0.0000000000000000e+00  -4.7128457737091831e-04 6.3689595759748065e-03 0.0000000000000000e+00  -1.4007901158392440e-04 7.2199480884156068e-03 0.0000000000000000e+00  -1.7387610954101734e-03 6.1156175964513408e-03 0.0000000000000000e+00  -1.4806573977534944e-03 6.9274113027783931e-03 0.0000000000000000e+00  -2.9171325196373017e-03 5.6501502231010355e-03 0.0000000000000000e+00  -2.7258248711416137e-03 6.3990435745934944e-03 0.0000000000000000e+00  -3.9731166971125279e-03 4.9943491923807410e-03 0.0000000000000000e+00  -3.8419118147300013e-03 5.6599200971119363e-03 0.0000000000000000e+00  -4.8784051868149591e-03 4.1741688357671072e-03 0.0000000000000000e+00  -4.8004661902494913e-03 4.7392642907774004e-03 0.0000000000000000e+00  -5.6096464261805208e-03 3.2189004215402144e-03 0.0000000000000000e+00  -5.5780666210893271e-03 3.6695469207003112e-03 0.0000000000000000e+00  -6.1483850518456390e-03 2.1603822362859467e-03 0.0000000000000000e+00  -6.1563365447513813e-03 2.4857522144759977e-03 0.0000000000000000e+00  -6.4810242255130823e-03 1.0323392257210956e-03 0.0000000000000000e+00  -6.5217849907874643e-03 1.2246787689103697e-03 0.0000000000000000e+00  -6.5987707564895762e-03 -1.3024165261218046e-04 0.0000000000000000e+00  -6.6658058683274806e-03 -7.5621026736445523e-05 0.0000000000000000e+00  -6.4976284762530926e-03 -1.2916533287472744e-03 0.0000000000000000e+00  -6.5846083782544222e-03 -1.3763903217738974e-03 0.0000000000000000e+00  -6.1784065698441528e-03 -2.4160146748633936e-03 0.0000000000000000e+00  -6.2792812850178854e-03 -2.6386490282799342e-03 0.0000000000000000e+00  -5.6467755269511023e-03 -3.4678027491409020e-03 0.0000000000000000e+00  -5.7558155456540602e-03 -3.8237193308840725e-03 0.0000000000000000e+00  -4.9133471972461658e-03 -4.4124467038380456e-03 0.0000000000000000e+00  -5.0252628623996603e-03 -4.8937631324960703e-03 0.0000000000000000e+00  -3.9937995506915481e-03 -5.2169703648713749e-03 0.0000000000000000e+00  -4.1038470527787543e-03 -5.8124265755680367e-03 0.0000000000000000e+00  -2.9089981722079171e-03 -5.8507478869315194e-03 0.0000000000000000e+00  -3.0131891690310057e-03 -6.5455587318619252e-03 0.0000000000000000e+00  -1.6851301909544968e-03 -6.2863401013158416e-03 0.0000000000000000e+00  -1.7804297707512968e-03 -7.0620777288106576e-03 0.0000000000000000e+00  -3.5378376940406659e-04 -6.5004605741107576e-03 0.0000000000000000e+00  -4.3843386594624311e-04 -7.3349279915138673e-03 0.0000000000000000e+00  1.0479867487524863e-03 -6.4750070133343992e-03 0.0000000000000000e+00  9.7418158245757074e-04 -7.3421736427945082e-03 0.0000000000000000e+00  2.4776192267051229e-03 -6.1981907420387240e-03 0.0000000000000000e+00  2.4129303156139271e-03 -7.0681387300468171e-03 0.0000000000000000e+00  3.8866535837892434e-03 -5.6656872089669566e-03 0.0000000000000000e+00  3.8272834718169864e-03 -6.5046177904665124e-03 0.0000000000000000e+00  5.2186454285714562e-03 -4.8819390267287452e-03 0.0000000000000000e+00  5.1591274026643406e-03 -5.6521189015375844e-03 0.0000000000000000e+00  6.3992355678383116e-03 -3.8621458309174208e-03 0.0000000000000000e+00  6.3352995605875737e-03 -4.5216258465444210e-03 0.0000000000000000e+00  7.2946311535127600e-03 -2.6391334334688356e-03 0.0000000000000000e+00  7.2338685559420867e-03 -3.1400594308247792e-03 0.0000000000000000e+00  7.5821920695380964e-03 -1.3077878500866243e-03 0.0000000000000000e+00  7.5600928985501007e-03 -1.5845616700641484e-03 0.0000000000000000e+00  6.7994251678322572e-03 -2.0622702896573255e-04 0.0000000000000000e+00  6.6539171131555436e-03 -2.7687711872903498e-04 0.0000000000000000e+00  9.0210399310671763e-03 2.4576608939446405e-03 0.0000000000000000e+00  8.4115435088317619e-03 9.6326376561169113e-04 0.0000000000000000e+00  8.4521903014781220e-03 4.3985851387846253e-03 0.0000000000000000e+00  7.4685425172086187e-03 6.0665226933519127e-03 0.0000000000000000e+00  6.2298262888270213e-03 7.3944869757519953e-03 0.0000000000000000e+00  4.8234561224698210e-03 8.3661936279607729e-03 0.0000000000000000e+00  3.3188746789808766e-03 8.9785546150235977e-03 0.0000000000000000e+00  1.7765793055872922e-03 9.2379530872655040e-03 0.0000000000000000e+00  2.5083976622746677e-04 9.1590163479535469e-03 0.0000000000000000e+00  -1.2103961744649118e-03 8.7635870424835650e-03 0.0000000000000000e+00  -2.5650496124909306e-03 8.0795256370284653e-03 0.0000000000000000e+00  -3.7772016834725771e-03 7.1396937006845840e-03 0.0000000000000000e+00  -4.8165492189698308e-03 5.9808550260513288e-03 0.0000000000000000e+00  -5.6585245863974227e-03 4.6428634742507607e-03 0.0000000000000000e+00  -6.2838108903968404e-03 3.1678219368875232e-03 0.0000000000000000e+00  -6.6783930607217778e-03 1.5995292220606528e-03 0.0000000000000000e+00  -6.8332117722225676e-03 -1.7108068452055560e-05 0.0000000000000000e+00  -6.7442732400344058e-03 -1.6364514438965954e-03 0.0000000000000000e+00  -6.4125048379170451e-03 -3.2125861043692571e-03 0.0000000000000000e+00  -5.8439828136502394e-03 -4.6996800084371237e-03 0.0000000000000000e+00  -5.0499794249087371e-03 -6.0524879890346299e-03 0.0000000000000000e+00  -4.0473499684573972e-03 -7.2268713380748539e-03 0.0000000000000000e+00  -2.8586869847939305e-03 -8.1805265762388869e-03 0.0000000000000000e+00  -1.5127896139669711e-03 -8.8737986767864832e-03 0.0000000000000000e+00  -4.4785371153752710e-05 -9.2707260197378450e-03 0.0000000000000000e+00  1.5034655247076936e-03 -9.3401653854403473e-03 0.0000000000000000e+00  3.0833877667041064e-03 -9.0570926477055568e-03 0.0000000000000000e+00  4.6391415062689368e-03 -8.4039073410806624e-03 0.0000000000000000e+00  6.1059749634153468e-03 -7.3718804282137118e-03 0.0000000000000000e+00  7.4008478043005883e-03 -5.9631807126738516e-03 0.0000000000000000e+00  8.3798654761861654e-03 -4.1978838154345813e-03 0.0000000000000000e+00  8.6705995950264163e-03 -2.1649661628677904e-03 0.0000000000000000e+00  7.4140205508644186e-03 -5.7344892803458034e-04 0.0000000000000000e+00  1.0918838387417097e-02 3.1598254205411689e-03 0.0000000000000000e+00  1.0209140549496704e-02 1.3189837993535600e-03 0.0000000000000000e+00  1.0242885907841372e-02 5.6536660093613432e-03 0.0000000000000000e+00  9.1189190079661083e-03 7.7758196461870733e-03 0.0000000000000000e+00  7.7135656867501623e-03 9.4402685171380979e-03 0.0000000000000000e+00  6.1220695702400973e-03 1.0635911304272112e-02 0.0000000000000000e+00  4.4223414287380492e-03 1.1368504249040694e-02 0.0000000000000000e+00  2.6839499536259648e-03 1.1654287968810909e-02 0.0000000000000000e+00  9.6821786569033610e-04 1.1518198761421048e-02 0.0000000000000000e+00  -6.7064187718841471e-04 1.0992376457578184e-02 0.0000000000000000e+00  -2.1862956135472065e-03 1.0114893909755835e-02 0.0000000000000000e+00  -3.5391007836406301e-03 8.9283848062987198e-03 0.0000000000000000e+00  -4.6966124121636801e-03 7.4790447784487228e-03 0.0000000000000000e+00  -5.6323318551858466e-03 5.8155715675739317e-03 0.0000000000000000e+00  -6.3260508325215341e-03 3.9885726925547368e-03 0.0000000000000000e+00  -6.7628092915642613e-03 2.0498790036241198e-03 0.0000000000000000e+00  -6.9331998611625312e-03 5.2298307773824621e-05 0.0000000000000000e+00  -6.8327107067353869e-03 -1.9507940617029033e-03 0.0000000000000000e+00  -6.4621534352840310e-03 -3.9055507397606978e-03 0.0000000000000000e+00  -5.8273877742950455e-03 -5.7579877066183819e-03 0.0000000000000000e+00  -4.9399801649542240e-03 -7.4541801174567027e-03 0.0000000000000000e+00  -3.8172337702695250e-03 -8.9407672082396066e-03 0.0000000000000000e+00  -2.4830622748534389e-03 -1.0165479601470755e-02 0.0000000000000000e+00  -9.6814198494086254e-04 -1.1078018233570554e-02 0.0000000000000000e+00  6.8916067653824607e-04 -1.1631046821108109e-02 0.0000000000000000e+00  2.4427421490549822e-03 -1.1781510831851017e-02 0.0000000000000000e+00  4.2379900417370232e-03 -1.1492054152157549e-02 0.0000000000000000e+00  6.0115801189789811e-03 -1.0732662990414255e-02 0.0000000000000000e+00  7.6887032815117374e-03 -9.4824485777169950e-03 0.0000000000000000e+00  9.1714455664755803e-03 -7.7324893438578679e-03 0.0000000000000000e+00  1.0282649310074022e-02 -5.4957616617125849e-03 0.0000000000000000e+00  1.0545271160489927e-02 -2.8813516362478924e-03 0.0000000000000000e+00  8.8724133699482205e-03 -9.1706318380612979e-04 0.0000000000000000e+00  1.3541570367151291e-02 3.9815399869630183e-03 0.0000000000000000e+00  1.2628629611178289e-02 1.7128026712919390e-03 0.0000000000000000e+00  1.2752175832327605e-02 7.1159108146791189e-03 0.0000000000000000e+00  1.1452094240163883e-02 9.7594891724556536e-03 0.0000000000000000e+00  9.8351677821736285e-03 1.1805891217206406e-02 0.0000000000000000e+00  8.0092222180289021e-03 1.3251177613960774e-02 0.0000000000000000e+00  6.0652550907553679e-03 1.4112380822519510e-02 0.0000000000000000e+00  4.0830678867410713e-03 1.4418354548724102e-02 0.0000000000000000e+00  2.1335791473779276e-03 1.4207053580788722e-02 0.0000000000000000e+00  2.7735073378856045e-04 1.3523602254176651e-02 0.0000000000000000e+00  -1.4333578931557476e-03 1.2418534821978168e-02 0.0000000000000000e+00  -2.9559030091066848e-03 1.0946333079304661e-02 0.0000000000000000e+00  -4.2547589539065457e-03 9.1640833955741654e-03 0.0000000000000000e+00  -5.3025492040502595e-03 7.1306321500784258e-03 0.0000000000000000e+00  -6.0776458865687989e-03 4.9057684283666048e-03 0.0000000000000000e+00  -6.5650953091141344e-03 2.5500108137653027e-03 0.0000000000000000e+00  -6.7546870143704672e-03 1.2423619569802756e-04 0.0000000000000000e+00  -6.6419586324325541e-03 -2.3101096130247406e-03 0.0000000000000000e+00  -6.2269758547395648e-03 -4.6911508897239211e-03 0.0000000000000000e+00  -5.5155438852858988e-03 -6.9563026384220740e-03 0.0000000000000000e+00  -4.5186678792364541e-03 -9.0424651521715197e-03 0.0000000000000000e+00  -3.2540726777959754e-03 -1.0886056831609373e-02 0.0000000000000000e+00  -1.7461204968745169e-03 -1.2423566877239771e-02 0.0000000000000000e+00  -2.7523464016775714e-05 -1.3592193823161316e-02 0.0000000000000000e+00  1.8605970682573181e-03 -1.4330987747747059e-02 0.0000000000000000e+00  3.8671097209286606e-03 -1.4582218999533691e-02 0.0000000000000000e+00  5.9309503819455732e-03 -1.4293156150264278e-02 0.0000000000000000e+00  7.9794651401639029e-03 -1.3418088447503059e-02 0.0000000000000000e+00  9.9258029406928180e-03 -1.1920801297766535e-02 0.0000000000000000e+00  1.1652817535651203e-02 -9.7785407050391317e-03 0.0000000000000000e+00  1.2940763482236117e-02 -6.9957366901948351e-03 0.0000000000000000e+00  1.3178462798963349e-02 -3.7043213046069083e-03 0.0000000000000000e+00  1.0967116365415417e-02 -1.2804782241112936e-03 0.0000000000000000e+00  1.6975204189480286e-02 4.9397868101667677e-03 0.0000000000000000e+00  1.5743666778987215e-02 2.1670550407545258e-03 0.0000000000000000e+00  1.6065921571339396e-02 8.8137923534344527e-03 0.0000000000000000e+00  1.4559119820650160e-02 1.2052504600591542e-02 0.0000000000000000e+00  1.2693185594836228e-02 1.4528645951015870e-02 0.0000000000000000e+00  1.0595879991519589e-02 1.6248077759601940e-02 0.0000000000000000e+00  8.3725413674444731e-03 1.7242589937275735e-02 0.0000000000000000e+00  6.1162963872101366e-03 1.7557355245301120e-02 0.0000000000000000e+00  3.9068744946210978e-03 1.7246952133296113e-02 0.0000000000000000e+00  1.8131718275698995e-03 1.6372797354667540e-02 0.0000000000000000e+00  -1.0869342673228822e-04 1.5000797678278567e-02 0.0000000000000000e+00  -1.8117852477261413e-03 1.3199569313383981e-02 0.0000000000000000e+00  -3.2601361035738824e-03 1.1038944047864565e-02 0.0000000000000000e+00  -4.4245460377136730e-03 8.5889987441268145e-03 0.0000000000000000e+00  -5.2845196413429801e-03 5.9195428120027193e-03 0.0000000000000000e+00  -5.8241972693253265e-03 3.0998647146391208e-03 0.0000000000000000e+00  -6.0345041674402166e-03 1.9906072777156489e-04 0.0000000000000000e+00  -5.9098725108544447e-03 -2.7137752913281269e-03 0.0000000000000000e+00  -5.4506592881682315e-03 -5.5687663990004153e-03 0.0000000000000000e+00  -4.6610100506093901e-03 -8.2949808419480742e-03 0.0000000000000000e+00  -3.5515548930966307e-03 -1.0819744622590263e-02 0.0000000000000000e+00  -2.1384310603462737e-03 -1.3068668036747999e-02 0.0000000000000000e+00  -4.4616454503816096e-04 -1.4965612058732213e-02 0.0000000000000000e+00  1.4925252882601028e-03 -1.6433376239374031e-02 0.0000000000000000e+00  3.6339389377636590e-03 -1.7394687106616197e-02 0.0000000000000000e+00  5.9233193380580536e-03 -1.7773825530969536e-02 0.0000000000000000e+00  8.2925539252129213e-03 -1.7498745910700657e-02 0.0000000000000000e+00  1.0659631378161435e-02 -1.6503726313614884e-02 0.0000000000000000e+00  1.2923373892789223e-02 -1.4732757340223749e-02 0.0000000000000000e+00  1.4943826311639919e-02 -1.2145027029887056e-02 0.0000000000000000e+00  1.6447262124297864e-02 -8.7331916983984410e-03 0.0000000000000000e+00  1.6650874422414683e-02 -4.6538115460481840e-03 0.0000000000000000e+00  1.3738421246305223e-02 -1.6817955235289763e-03 0.0000000000000000e+00  2.1355213927170106e-02 6.0543079869093660e-03 0.0000000000000000e+00  1.9663955882136690e-02 2.7012610865152029e-03 0.0000000000000000e+00  2.0325264251530039e-02 1.0779207172741632e-02 0.0000000000000000e+00  1.8587494630468569e-02 1.4693409136585903e-02 0.0000000000000000e+00  1.6446342618353250e-02 1.7648004556663620e-02 0.0000000000000000e+00  1.4054205112992527e-02 1.9662795245095000e-02 0.0000000000000000e+00  1.1534701135686807e-02 2.0789336168601413e-02 0.0000000000000000e+00  8.9934680215876250e-03 2.1094071555265683e-02 0.0000000000000000e+00  6.5210339333454893e-03 2.0653038097538816e-02 0.0000000000000000e+00  4.1915377547802005e-03 1.9548097715964025e-02 0.0000000000000000e+00  2.0661588093565278e-03 1.7864136412528722e-02 0.0000000000000000e+00  1.9173751795062188e-04 1.5686581935865789e-02 0.0000000000000000e+00  -1.3941580319544631e-03 1.3099953718205947e-02 0.0000000000000000e+00  -2.6652213359055028e-03 1.0186690478549457e-02 0.0000000000000000e+00  -3.6004793696698279e-03 7.0269916579909454e-03 0.0000000000000000e+00  -4.1873722442432280e-03 3.6988789307210658e-03 0.0000000000000000e+00  -4.4157590207468426e-03 2.7894092945198715e-04 0.0000000000000000e+00  -4.2820221029334551e-03 -3.1566766929602328e-03 0.0000000000000000e+00  -3.7840460473735301e-03 -6.5311744281489961e-03 0.0000000000000000e+00  -2.9258463164480485e-03 -9.7657146380736998e-03 0.0000000000000000e+00  -1.7143778206018590e-03 -1.2778542170066774e-02 0.0000000000000000e+00  -1.6425361953105184e-04 -1.5483964412111311e-02 0.0000000000000000e+00  1.7034441899489473e-03 -1.7792214354662040e-02 0.0000000000000000e+00  3.8567925184789099e-03 -1.9609559181345451e-02 0.0000000000000000e+00  6.2528211564327777e-03 -2.0839362560812574e-02 0.0000000000000000e+00  8.8338760709897879e-03 -2.1383797577634346e-02 0.0000000000000000e+00  1.1526873156672151e-02 -2.1146451221151028e-02 0.0000000000000000e+00  1.4239954977603336e-02 -2.0035793769986269e-02 0.0000000000000000e+00  1.6857082631255779e-02 -1.7969729473993282e-02 0.0000000000000000e+00  1.9210982474301721e-02 -1.4883097980884120e-02 0.0000000000000000e+00  2.0961287825817236e-02 -1.0751420597843269e-02 0.0000000000000000e+00  2.1106422369350036e-02 -5.7571127456526924e-03 0.0000000000000000e+00  1.7281016340182719e-02 -2.1444485643377295e-03 0.0000000000000000e+00  2.6862282099713333e-02 7.3409571227671961e-03 0.0000000000000000e+00  2.4531114795196905e-02 3.3330777041643577e-03 0.0000000000000000e+00  2.5720326246728237e-02 1.3036083014073344e-02 0.0000000000000000e+00  2.3737779427635223e-02 1.7707492048200338e-02 0.0000000000000000e+00  2.1308980112559339e-02 2.1184475709729814e-02 0.0000000000000000e+00  1.8618145812450023e-02 2.3506989961066520e-02 0.0000000000000000e+00  1.5808170941633396e-02 2.4753289177305075e-02 0.0000000000000000e+00  1.2998782180352410e-02 2.5017967439761195e-02 0.0000000000000000e+00  1.0288453826245911e-02 2.4404705532049483e-02 0.0000000000000000e+00  7.7565155911203240e-03 2.3021248420724276e-02 0.0000000000000000e+00  5.4639651644898144e-03 2.0975611575737980e-02 0.0000000000000000e+00  3.4574061722015253e-03 1.8373232868847313e-02 0.0000000000000000e+00  1.7695156558720680e-03 1.5315069847084835e-02 0.0000000000000000e+00  4.2476364461169723e-04 1.1896876504687886e-02 0.0000000000000000e+00  -5.6205387120255906e-04 8.2089775020040973e-03 0.0000000000000000e+00  -1.1788196385695909e-03 4.3373547836696030e-03 0.0000000000000000e+00  -1.4201410805828284e-03 3.6463966717082861e-04 0.0000000000000000e+00  -1.2799823943199970e-03 -3.6276911149249642e-03 0.0000000000000000e+00  -7.5785183283630982e-04 -7.5575809323535359e-03 0.0000000000000000e+00  1.4747426941772856e-04 -1.1340014982752493e-02 0.0000000000000000e+00  1.4309834882059763e-03 -1.4885079993753393e-02 0.0000000000000000e+00  3.0849217249298952e-03 -1.8096341006601666e-02 0.0000000000000000e+00  5.0922972069626909e-03 -2.0869593901369266e-02 0.0000000000000000e+00  7.4271987277574848e-03 -2.3092770761153243e-02 0.0000000000000000e+00  1.0049443687762862e-02 -2.4646448250608549e-02 0.0000000000000000e+00  1.2902878249355574e-02 -2.5405852917057482e-02 0.0000000000000000e+00  1.5911306075356450e-02 -2.5243835216068357e-02 0.0000000000000000e+00  1.8975322122153429e-02 -2.4035399686871215e-02 0.0000000000000000e+00  2.1963443101056759e-02 -2.1663755753068527e-02 0.0000000000000000e+00  2.4677670429400549e-02 -1.8030381173740655e-02 0.0000000000000000e+00  2.6695687836426996e-02 -1.3085585845621524e-02 0.0000000000000000e+00  2.6739771810925905e-02 -7.0378052726401616e-03 0.0000000000000000e+00  2.1729786857777957e-02 -2.6900442037164638e-03 0.0000000000000000e+00  3.3717673248489489e-02 8.8093331077255341e-03 0.0000000000000000e+00  3.0515497008455791e-02 4.0791730494450429e-03 0.0000000000000000e+00  3.2485457807039139e-02 1.5595222643765224e-02 0.0000000000000000e+00  3.0256744221731285e-02 2.1099116693543203e-02 0.0000000000000000e+00  2.7546501271500767e-02 2.5129557661656522e-02 0.0000000000000000e+00  2.4577288213725013e-02 2.7755603892605205e-02 0.0000000000000000e+00  2.1513383428964437e-02 2.9091825147818520e-02 0.0000000000000000e+00  1.8486968132642410e-02 2.9270241622279872e-02 0.0000000000000000e+00  1.5602743167678792e-02 2.8430253795108679e-02 0.0000000000000000e+00  1.2940205617340141e-02 2.6712239319242222e-02 0.0000000000000000e+00  1.0557225804550787e-02 2.4252326579480871e-02 0.0000000000000000e+00  8.4932435148252581e-03 2.1179265675173430e-02 0.0000000000000000e+00  6.7741073159772718e-03 1.7612167976717292e-02 0.0000000000000000e+00  5.4146876243723217e-03 1.3660158912856752e-02 0.0000000000000000e+00  4.4243666588586646e-03 9.4228673246101787e-03 0.0000000000000000e+00  3.8070584240351393e-03 4.9919549037870763e-03 0.0000000000000000e+00  3.5674821818765636e-03 4.5377743346806140e-04 0.000000000000