<?xml version="1.0"?>
<VTKFile type="UnstructuredGrid"  version="0.1"  >
<UnstructuredGrid>
<Piece  NumberOfPoints="825" NumberOfCells="1536">
<Points>
<DataArray  type="Float64"  NumberOfComponents="3"  format="ascii">-9.584020678336264e-22 0.5 0  0.06249999789718715 0.5000000559964135 0  0.06249992538412929 0.5625000649636313 0  -7.393474598336616e-08 0.562500006718524 0  0.1249999901784525 0.5000001076143052 0  0.1249999195622185 0.5625001121534883 0  0.187499976555428 0.5000001556023073 0  0.1874999083972553 0.5625001542144012 0  0.24999995738 0.5000002014985392 0  0.249999892030131 0.5625001907715635 0  0.3124999271350706 0.5000002326250778 0  0.3124998697960709 0.5625002177629277 0  0.374999885988928 0.5000002483736821 0  0.3749998408197076 0.5625002326062827 0  0.4374998351096707 0.5000002486981383 0  0.4374998055512853 0.5625002348408095 0  0.4999997753748912 0.5000002342003742 0  0.4999997652956307 0.5625002247059075 0  0.5624997117604182 0.5000002075072557 0  0.5624997221256572 0.5625002043671365 0  0.6249996527065798 0.5000001772690201 0  0.6249996790201285 0.5625001778558358 0  0.6874995994937582 0.5000001451191599 0  0.6874996385003513 0.5625001471929044 0  0.7499995513514662 0.5000001082797797 0  0.7499996017845034 0.5625001131794397 0  0.8124995112802409 0.5000000712405577 0  0.8124995701447777 0.5625000776576177 0  0.8749994799029973 0.500000034865839 0  0.874999544444638 0.562500041255057 0  0.9374994555476426 0.4999999962319032 0  0.9374995249389008 0.562500004294966 0  0.9999994409120414 0.4999999599991876 0  0.9999995121924332 0.562499968127087 0  1.062499435440721 0.4999999248375396 0  1.06249950630084 0.5624999328274946 0  1.124999436898213 0.4999998887331204 0  1.124999506814839 0.5624998990572105 0  1.187499448783182 0.4999998603831132 0  1.187499514039529 0.5624998686858 0  1.249999467550625 0.4999998321806769 0  1.249999527631427 0.562499840995405 0  1.31249949303502 0.499999806220934 0  1.312499546608322 0.5624998168639803 0  1.374999527368987 0.4999997898689829 0  1.374999570993573 0.5624997984146554 0  1.437499566871955 0.4999997763016615 0  1.437499600022353 0.5624997852909794 0  1.499999611342777 0.4999997687877263 0  1.499999632331825 0.5624997790570787 0  1.562499662019224 0.4999997759332163 0  1.562499667638167 0.5624997822184304 0  1.624999714888839 0.4999997911721072 0  1.624999705088642 0.5624997940716848 0  1.687499769655709 0.4999998155073914 0  1.687499743187687 0.5624998144113748 0  1.749999826150743 0.4999998521136165 0  1.749999781024383 0.562499842963615 0  1.812499879452046 0.4999998913709086 0  1.812499816832135 0.5624998769444186 0  1.87499992856489 0.4999999328789253 0  1.874999848055665 0.5624999150490999 0  1.937499971093263 0.4999999734381377 0  1.9374998715739 0.5624999589521629 0  2 0.5 0  1.999999881022941 0.5625000306132768 0  0.06249986772678451 0.6250000761884629 0  -1.325314160057456e-07 0.6250000286801056 0  0.1249998644168652 0.6250001171834334 0  0.1874998568827746 0.6250001530856687 0  0.2499998452751443 0.6250001833610509 0  0.3124998295722173 0.625000205939224 0  0.3749998095481748 0.6250002189110829 0  0.4374997853888835 0.6250002214549913 0  0.4999997577641963 0.6250002137340613 0  0.562499727757239 0.6250001971250092 0  0.624999696958939 0.625000173845362 0  0.687499667085094 0.625000145768714 0  0.7499996394285204 0.6250001142494793 0  0.8124996150270453 0.6250000805301132 0  0.8749995947094704 0.6250000455362913 0  0.9374995789625906 0.6250000100181654 0  0.9999995681393182 0.6249999747712391 0  1.062499562407838 0.6249999404385167 0  1.124999561672135 0.6249999077825328 0  1.187499565901397 0.6249998776497063 0  1.249999574865417 0.6249998505355375 0  1.312499588011853 0.6249998271809287 0  1.374999604933493 0.624999808610722 0  1.437499625030454 0.6249997955555199 0  1.499999647453752 0.6249997890345658 0  1.562499671623981 0.6249997901089729 0  1.624999696870499 0.6249997989859999 0  1.687499722209152 0.624999815433153 0  1.749999746616427 0.6249998388493574 0  1.812499768615471 0.6249998681166201 0  1.874999786041754 0.6249999028793317 0  1.937499796340632 0.6249999455517085 0  1.999999799182833 0.6250000014980781 0  0.06249982523698862 0.6875000892375428 0  -1.749854371652394e-07 0.6875000534729413 0  0.1249998235230396 0.6875001226134739 0  0.1874998189861631 0.6875001522653198 0  0.2499998114872752 0.6875001770610132 0  0.3124998010467977 0.6875001954857313 0  0.374999787651924 0.6875002061409694 0  0.4374997714092726 0.6875002082428445 0  0.4999997526559269 0.6875002017977048 0  0.5624997320060778 0.6875001876254884 0  0.6249997103832645 0.6875001670990917 0  0.6874996888727684 0.6875001416648985 0  0.7499996684827779 0.687500112605529 0  0.8124996500752094 0.6875000810446243 0  0.874999634344192 0.6875000479385076 0  0.9374996217822211 0.6875000141198361 0  0.9999996127169072 0.6874999803633104 0  1.062499607317019 0.6874999474004035 0  1.124999605600029 0.6874999159694737 0  1.187499607496803 0.687499886794945 0  1.249999612801071 0.6874998605424175 0  1.312499621151052 0.6874998379307489 0  1.374999632131824 0.6874998197477942 0  1.437499645239429 0.6874998067541436 0  1.499999659892397 0.6874997997117266 0  1.562499675550088 0.6874997992444865 0  1.624999691634466 0.68749980558298 0  1.687499707429579 0.6874998185611572 0  1.749999722075255 0.6874998376820568 0  1.812499734465393 0.6874998622713379 0  1.874999743304169 0.6874998919419844 0  1.937499747755011 0.6874999267666434 0  1.999999748842061 0.6874999649508259 0  0.06249979577995664 0.7500001029317295 0  -2.043550200046225e-07 0.7500000775396061 0  0.1249997949533427 0.7500001285473301 0  0.1874997924621223 0.7500001520238196 0  0.2499997880157543 0.750000171747479 0  0.3124997815321635 0.7500001863096682 0  0.3749997729885329 0.7500001945529977 0  0.4374997624273965 0.7500001957768219 0  0.4999997500164276 0.7500001898648099 0  0.5624997361022991 0.7500001772816084 0  0.6249997212308795 0.7500001589176997 0  0.6874997060862257 0.7500001358475739 0  0.7499996913787854 0.7500001091504648 0  0.8124996777644359 0.7500000798348226 0  0.8749996657973595 0.7500000488159273 0  0.9374996559027871 0.7500000169267681 0  0.9999996483747081 0.749999984942966 0  1.062499643379896 0.7499999536033817 0  1.124999640968089 0.7499999236268452 0  1.187499641087327 0.749999895710402 0  1.249999643578482 0.7499998705298648 0  1.312499648180695 0.7499998487651921 0  1.374999654562755 0.7499998311002666 0  1.437499662337038 0.7499998181893707 0  1.499999671081593 0.7499998106148201 0  1.562499680370983 0.7499998087954632 0  1.624999689755862 0.7499998128772583 0  1.687499698722783 0.7499998226915426 0  1.749999706678036 0.7499998377744348 0  1.812499712966738 0.7499998574303272 0  1.874999717037572 0.7499998807548433 0  1.937499718855251 0.7499999062166031 0  1.999999719264079 0.7499999301666066 0  0.06249977670756882 0.8125001162834253 0  -2.233752831717976e-07 0.8125000994990678 0  0.1249997763805866 0.81250013477921 0  0.1874997751882068 0.8125001524324085 0  0.2499997728323048 0.812500167435811 0  0.3124997691551501 0.8125001783929781 0  0.3749997640741123 0.8125001842500333 0  0.4374997575653657 0.8125001843518588 0  0.4999997496893734 0.8125001784959954 0  0.5624997406257694 0.8125001669197925 0  0.6249997306884367 0.8125001502069317 0  0.6874997202999258 0.8125001291478898 0  0.7499997099348512 0.8125001046147483 0  0.812499700061929 0.8125000774818608 0  0.8749996910995191 0.812500048587799 0  0.9374996833870819 0.8125000187254191 0  0.999999677171959 0.8124999886464882 0  1.062499672606177 0.8124999590703278 0  1.124999669749687 0.8124999306905762 0  1.187499668575936 0.8124999041768296 0  1.249999668975648 0.8124998801763822 0  1.312499670766212 0.81249985931722 0  1.374999673709382 0.8124998421990779 0  1.437499677529199 0.8124998293667033 0  1.499999681930572 0.8124998212657578 0  1.562499686613186 0.8124998181790009 0  1.624999691268632 0.8124998201594551 0  1.687499695571102 0.8124998269857263 0  1.749999699184678 0.8124998381392048 0  1.81249970181248 0.8124998527714248 0  1.874999703318134 0.8124998695716124 0  1.937499703885146 0.8124998863775583 0  1.999999704004724 0.8124998994506812 0  0.06249976570616689 0.8750001286958561 0  -2.343519644798153e-07 0.8750001188336493 0  0.1249997656608484 0.8750001410154014 0  0.1874997652601794 0.8750001534084491 0  0.2499997642621565 0.8750001640910362 0  0.3124997624853055 0.8750001717063455 0  0.3749997598017902 0.8750001752592172 0  0.4374997561332962 0.8750001741152972 0  0.499999751464684 0.8750001680109361 0  0.5624997458646461 0.8750001570335234 0  0.6249997394964492 0.8750001415601683 0  0.6874997326072317 0.8750001221695419 0  0.7499997254979202 0.875000099554414 0  0.8124997184857424 0.8750000744546873 0  0.8749997118699915 0.8750000476157045 0  0.9374997059064129 0.8750000197673612 0  0.9999997007914809 0.8749999916164312 0  1.062499696655032 0.8749999638451295 0  1.124999693558956 0.8749999371110098 0  1.187499691499524 0.8749999120457009 0  1.249999690412297 0.8749998892523524 0  1.312499690181093 0.8749998692999947 0  1.374999690651276 0.8749998527097953 0  1.437499691644867 0.8749998399296255 0  1.499999692975141 0.8749998312960706 0  1.562499694457406 0.8749998269860023 0  1.624999695913765 0.8749998269655179 0  1.687499697177545 0.8749998309436917 0  1.749999698108892 0.8749998383262997 0  1.812499698631867 0.874999848145226 0  1.874999698788294 0.8749998589192449 0  1.937499698760114 0.8749998684138386 0  1.999999698764718 0.8749998733387147 0  0.06249976089273766 0.9375001398662127 0  -2.391567012583105e-07 0.9375001354659871 0  0.1249997610024489 0.9375001470032065 0  0.1874997610651296 0.9375001547984581 0  0.2499997609094047 0.9375001616124897 0  0.3124997603650547 0.9375001661749359 0  0.3749997592852493 0.9375001675485992 0  0.4374997575567726 0.9375001651164708 0  0.4999997551128026 0.937500158574078 0  0.5624997519471694 0.9375001479076813 0  0.624999748122575 0.9375001333505485 0  0.6874997437666278 0.937500115323
[...]
<PointData  Vectors="u"> 
<DataArray  type="Float64"  Name="u"  NumberOfComponents="3" format="ascii">-9.0510893958307882e-24 -2.1736591477092265e-23 0.0000000000000000e+00  1.6304990456746730e-07 -1.6276648967034478e-06 0.0000000000000000e+00  1.1970433431599178e-04 1.7856407301941658e-05 0.0000000000000000e+00  0.0000000000000000e+00 0.0000000000000000e+00 0.0000000000000000e+00  6.2168135343254587e-07 -2.8041060406541304e-06 0.0000000000000000e+00  1.3042709724791395e-04 2.6627924564201489e-05 0.0000000000000000e+00  1.2809140294994797e-06 -3.7625712993692661e-06 0.0000000000000000e+00  1.1002932767470810e-04 2.7936277041294180e-05 0.0000000000000000e+00  2.1815269575744438e-06 -4.3181579572276904e-06 0.0000000000000000e+00  8.4895186034426748e-05 2.6465910423375735e-05 0.0000000000000000e+00  3.2614049211040069e-06 -4.6533415027306582e-06 0.0000000000000000e+00  5.9749343978770049e-05 2.4058978274107439e-05 0.0000000000000000e+00  4.2733993901543279e-06 -5.0956489540420318e-06 0.0000000000000000e+00  3.5880151783927870e-05 2.1382047202502523e-05 0.0000000000000000e+00  5.3520521978834495e-06 -5.4088734789838378e-06 0.0000000000000000e+00  1.3825048984110632e-05 1.8696917771642252e-05 0.0000000000000000e+00  6.4424875421563577e-06 -5.6736859781908452e-06 0.0000000000000000e+00  -6.1758526248470835e-06 1.6137461945720521e-05 0.0000000000000000e+00  7.7288566451533739e-06 -5.6032825938997633e-06 0.0000000000000000e+00  -2.3969392257063931e-05 1.3785093391032193e-05 0.0000000000000000e+00  9.2496316993854790e-06 -5.0392510311202576e-06 0.0000000000000000e+00  -3.9445890486675676e-05 1.1669956569505314e-05 0.0000000000000000e+00  1.0747397308521869e-05 -4.2583054563511653e-06 0.0000000000000000e+00  -5.2543265769023198e-05 9.7574781837284792e-06 0.0000000000000000e+00  1.2208321231643732e-05 -3.2724054000543375e-06 0.0000000000000000e+00  -6.3208933256053568e-05 7.9624461685049443e-06 0.0000000000000000e+00  1.3385598663080590e-05 -2.4054142701077983e-06 0.0000000000000000e+00  -7.1421859758922875e-05 6.2151333690179573e-06 0.0000000000000000e+00  1.4491411833065565e-05 -1.3741389166210378e-06 0.0000000000000000e+00  -7.7156605853313229e-05 4.4491187862284597e-06 0.0000000000000000e+00  1.5161242603277088e-05 -6.8701842047082481e-07 0.0000000000000000e+00  -8.0450773716848366e-05 2.6214264628372638e-06 0.0000000000000000e+00  1.5695272281819295e-05 7.7419332232467517e-08 0.0000000000000000e+00  -8.1315345330105606e-05 7.2318683513651483e-07 0.0000000000000000e+00  1.6113492941342126e-05 9.1501646114430702e-07 0.0000000000000000e+00  -7.9784854184812774e-05 -1.2362215977239796e-06 0.0000000000000000e+00  1.6127889232437152e-05 1.4325735145767529e-06 0.0000000000000000e+00  -7.5891188529825969e-05 -3.2652372089861420e-06 0.0000000000000000e+00  1.6059816990850775e-05 2.1267863119983953e-06 0.0000000000000000e+00  -6.9624906524755770e-05 -5.3162298802883825e-06 0.0000000000000000e+00  1.5885548851067650e-05 2.8740026410225460e-06 0.0000000000000000e+00  -6.0983055313650499e-05 -7.3868085812041729e-06 0.0000000000000000e+00  1.5357439839757981e-05 3.3524928138236182e-06 0.0000000000000000e+00  -4.9993320652244774e-05 -9.5158327038076452e-06 0.0000000000000000e+00  1.4767434362146948e-05 4.0232624689189866e-06 0.0000000000000000e+00  -3.6657346397009497e-05 -1.1693322956789136e-05 0.0000000000000000e+00  1.4086213198354599e-05 4.7644491373298341e-06 0.0000000000000000e+00  -2.1001710802409984e-05 -1.3953913008117589e-05 0.0000000000000000e+00  1.3060077988305227e-05 5.2480030762313248e-06 0.0000000000000000e+00  -3.0792879063557893e-06 -1.6371803206088591e-05 0.0000000000000000e+00  1.1983738212959827e-05 5.7864302064574129e-06 0.0000000000000000e+00  1.7079978805496277e-05 -1.8970804848595766e-05 0.0000000000000000e+00  1.0823972764356601e-05 6.1007385003280112e-06 0.0000000000000000e+00  3.9404987679746756e-05 -2.1769500167125610e-05 0.0000000000000000e+00  9.3253320330883065e-06 5.8542570694000884e-06 0.0000000000000000e+00  6.3754938490796889e-05 -2.4686350842366281e-05 0.0000000000000000e+00  7.7770149674664941e-06 5.4755856657349219e-06 0.0000000000000000e+00  8.9848274884039722e-05 -2.7302618326776147e-05 0.0000000000000000e+00  6.1373576946621146e-06 4.8007560143662763e-06 0.0000000000000000e+00  1.1657804014651555e-04 -2.8597554032606347e-05 0.0000000000000000e+00  4.1297994979350321e-06 3.4518434307468115e-06 0.0000000000000000e+00  1.3874294142953193e-04 -2.6170444293302752e-05 0.0000000000000000e+00  2.0931638917033551e-06 1.8721159964092332e-06 0.0000000000000000e+00  1.3130200931428065e-04 -1.5283201285831542e-05 0.0000000000000000e+00  -8.1471031693930779e-23 1.6992559715308522e-22 0.0000000000000000e+00  0.0000000000000000e+00 0.0000000000000000e+00 0.0000000000000000e+00  1.7497023152190575e-04 3.1934957395770399e-05 0.0000000000000000e+00  0.0000000000000000e+00 0.0000000000000000e+00 0.0000000000000000e+00  1.8983829412336611e-04 5.1882601652091892e-05 0.0000000000000000e+00  1.6968974316072948e-04 5.8789995256116821e-05 0.0000000000000000e+00  1.3927690400028446e-04 5.9150718080794819e-05 0.0000000000000000e+00  1.0587674916951612e-04 5.6426879573724386e-05 0.0000000000000000e+00  7.2278179515787301e-05 5.2268599375272310e-05 0.0000000000000000e+00  3.9880784014808402e-05 4.7448089323513250e-05 0.0000000000000000e+00  9.5355694234527607e-06 4.2343969177908959e-05 0.0000000000000000e+00  -1.8188125817149802e-05 3.7143712274035339e-05 0.0000000000000000e+00  -4.2868229380337685e-05 3.1942436181966624e-05 0.0000000000000000e+00  -6.4168591158461863e-05 2.6775007146479138e-05 0.0000000000000000e+00  -8.1829498650213479e-05 2.1624241631946522e-05 0.0000000000000000e+00  -9.5664868895171970e-05 1.6459438723951316e-05 0.0000000000000000e+00  -1.0554987900270797e-04 1.1245684919869560e-05 0.0000000000000000e+00  -1.1142235482615673e-04 5.9626486366813433e-06 0.0000000000000000e+00  -1.1327354988924381e-04 6.0004218606937666e-07 0.0000000000000000e+00  -1.1112596588370000e-04 -4.8255396974085004e-06 0.0000000000000000e+00  -1.0502271400693926e-04 -1.0286869812478402e-05 0.0000000000000000e+00  -9.5015908013337477e-05 -1.5747756852245969e-05 0.0000000000000000e+00  -8.1179526226245633e-05 -2.1182038968555570e-05 0.0000000000000000e+00  -6.3630672898119385e-05 -2.6584023447608745e-05 0.0000000000000000e+00  -4.2527499759469066e-05 -3.1945839403648186e-05 0.0000000000000000e+00  -1.8082890624543289e-05 -3.7260642997200073e-05 0.0000000000000000e+00  9.4168726157537177e-06 -4.2515659680839687e-05 0.0000000000000000e+00  3.9601559251580059e-05 -4.7645207555901714e-05 0.0000000000000000e+00  7.1980372301761819e-05 -5.2472110121635594e-05 0.0000000000000000e+00  1.0588269615332845e-04 -5.6583092455576056e-05 0.0000000000000000e+00  1.4030277236720760e-04 -5.9064016544669445e-05 0.0000000000000000e+00  1.7311077324345825e-04 -5.8048654839369284e-05 0.0000000000000000e+00  1.9694878497362770e-04 -5.0007997765014359e-05 0.0000000000000000e+00  1.7946598597539076e-04 -2.9579536786741032e-05 0.0000000000000000e+00  0.0000000000000000e+00 0.0000000000000000e+00 0.0000000000000000e+00  2.0357844797561658e-04 4.1811428026539711e-05 0.0000000000000000e+00  0.0000000000000000e+00 0.0000000000000000e+00 0.0000000000000000e+00  2.2722485080859636e-04 7.2125956638449641e-05 0.0000000000000000e+00  2.0906052842436918e-04 8.6949346067472256e-05 0.0000000000000000e+00  1.7936028793716084e-04 9.1968451823563993e-05 0.0000000000000000e+00  1.4513558942322782e-04 9.1263259321449836e-05 0.0000000000000000e+00  1.0917824631965614e-04 8.7225184919111049e-05 0.0000000000000000e+00  7.3279163580616664e-05 8.1198044566002111e-05 0.0000000000000000e+00  3.8730843315977533e-05 7.3942011075635124e-05 0.0000000000000000e+00  6.5005191520139259e-06 6.5895241031761707e-05 0.0000000000000000e+00  -2.2666410213004342e-05 5.7319787510210097e-05 0.0000000000000000e+00  -4.8180310703593587e-05 4.8376386002635602e-05 0.0000000000000000e+00  -6.9578953764086227e-05 3.9156307136908424e-05 0.0000000000000000e+00  -8.6514597839481254e-05 2.9713131973350855e-05 0.0000000000000000e+00  -9.8741729712808172e-05 2.0084386631651160e-05 0.0000000000000000e+00  -1.0610674164770486e-04 1.0307419941397635e-05 0.0000000000000000e+00  -1.0853897513886340e-04 4.2483369440432967e-07 0.0000000000000000e+00  -1.0603514003697724e-04 -9.5065024908757506e-06 0.0000000000000000e+00  -9.8649004518572687e-05 -1.9415687455622233e-05 0.0000000000000000e+00  -8.6486271431695518e-05 -2.9225045108896113e-05 0.0000000000000000e+00  -6.9710607286127955e-05 -3.8858157211942398e-05 0.0000000000000000e+00  -4.8558182210916059e-05 -4.8240748814553149e-05 0.0000000000000000e+00  -2.3350207975010625e-05 -5.7290162895532717e-05 0.0000000000000000e+00  5.4920769895531478e-06 -6.5899928834037624e-05 0.0000000000000000e+00  3.7426481958246191e-05 -7.3913121761434399e-05 0.0000000000000000e+00  7.1766700671366810e-05 -8.1069344851732042e-05 0.0000000000000000e+00  1.0765464835374893e-04 -8.6913677462333789e-05 0.0000000000000000e+00  1.4402587002889497e-04 -9.0641789162255958e-05 0.0000000000000000e+00  1.7949325308922340e-04 -9.0845059046386041e-05 0.0000000000000000e+00  2.1161912746288334e-04 -8.5143902475203273e-05 0.0000000000000000e+00  2.3261805395189102e-04 -6.9824847520829275e-05 0.0000000000000000e+00  2.0753400307414651e-04 -4.0339326761840298e-05 0.0000000000000000e+00  0.0000000000000000e+00 0.0000000000000000e+00 0.0000000000000000e+00  2.2657029539674238e-04 4.9841058104026520e-05 0.0000000000000000e+00  0.0000000000000000e+00 0.0000000000000000e+00 0.0000000000000000e+00  2.5639593063978727e-04 8.8588264486390227e-05 0.0000000000000000e+00  2.4107790422359235e-04 1.1138587166363428e-04 0.0000000000000000e+00  2.1411583962987004e-04 1.2230060984953862e-04 0.0000000000000000e+00  1.8222969896640494e-04 1.2514912734092737e-04 0.0000000000000000e+00  1.4784128150437676e-04 1.2260732204035809e-04 0.0000000000000000e+00  1.1262992106722837e-04 1.1642144077751270e-04 0.0000000000000000e+00  7.7996909331093703e-05 1.0771125912619478e-04 0.0000000000000000e+00  4.5108280320764901e-05 9.7200989157261746e-05 0.0000000000000000e+00  1.4917611706801536e-05 8.5371815559155928e-05 0.0000000000000000e+00  -1.1799338766203108e-05 7.2555304065415464e-05 0.0000000000000000e+00  -3.4421400099761015e-05 5.8987109406559546e-05 0.0000000000000000e+00  -5.2469371465241883e-05 4.4844156296120861e-05 0.0000000000000000e+00  -6.5592840013386721e-05 3.0271575491191585e-05 0.0000000000000000e+00  -7.3558291129128091e-05 1.5401109456805646e-05 0.0000000000000000e+00  -7.6239551866692548e-05 3.6213557021811724e-07 0.0000000000000000e+00  -7.3608153081540395e-05 -1.4710168719728833e-05 0.0000000000000000e+00  -6.5726064230985223e-05 -2.9670858878555220e-05 0.0000000000000000e+00  -5.2742370667011662e-05 -4.4365982897128393e-05 0.0000000000000000e+00  -3.4897936317095575e-05 -5.8633939329254515e-05 0.0000000000000000e+00  -1.2534924531234716e-05 -7.2300565629261022e-05 0.0000000000000000e+00  1.3889493976987184e-05 -8.5165644314830183e-05 0.0000000000000000e+00  4.3788910601302642e-05 -9.6979605916199722e-05 0.0000000000000000e+00  7.6433780370799168e-05 -1.0740474639736087e-04 0.0000000000000000e+00  1.1093797378150412e-04 -1.1595225502581994e-04 0.0000000000000000e+00  1.4625610077425907e-04 -1.2188388785062174e-04 0.0000000000000000e+00  1.8119946356740026e-04 -1.2406567400997300e-04 0.0000000000000000e+00  2.1439385660473046e-04 -1.2077010020689969e-04 0.0000000000000000e+00  2.4361153621370595e-04 -1.0946142545786173e-04 0.0000000000000000e+00  2.6120916015735714e-04 -8.6718882074321766e-05 0.0000000000000000e+00  2.3010162662883039e-04 -4.8976383095730919e-05 0.0000000000000000e+00  0.0000000000000000e+00 0.0000000000000000e+00 0.0000000000000000e+00  2.4763862841592173e-04 5.6457423944351804e-05 0.0000000000000000e+00  0.0000000000000000e+00 0.0000000000000000e+00 0.0000000000000000e+00  2.8292485210364675e-04 1.0210052458554787e-04 0.0000000000000000e+00  2.7093630516691924e-04 1.3184429033122257e-04 0.0000000000000000e+00  2.4779185199477342e-04 1.4857068438895631e-04 0.0000000000000000e+00  2.2012378778642737e-04 1.5551308026739551e-04 0.0000000000000000e+00  1.8981662633929788e-04 1.5527043059076429e-04 0.0000000000000000e+00  1.5820347577238800e-04 1.4975278433825549e-04 0.0000000000000000e+00  1.2654467987008720e-04 1.4031786875976903e-04 0.0000000000000000e+00  9.5999462891601691e-05 1.2792701161026726e-04 0.0000000000000000e+00  6.7582579835735176e-05 1.1327210607270213e-04 0.0000000000000000e+00  4.2156013162941251e-05 9.6866568941010668e-05 0.0000000000000000e+00  2.0430947399907836e-05 7.9106523040180772e-05 0.0000000000000000e+00  2.9703497223177601e-06 6.0312958324455972e-05 0.0000000000000000e+00  -9.8033002093258578e-06 4.0761819853089319e-05 0.0000000000000000e+00  -1.7599022779766611e-05 2.0704949588428276e-05 0.0000000000000000e+00  -2.0250545672441325e-05 3.8421820306702834e-07 0.0000000000000000e+00  -1.7710799092071262e-05 -1.9958804540782341e-05 0.0000000000000000e+00  -1.0046983433499469e-05 -4.0076122733714726e-05 0.0000000000000000e+00  2.5606839391572815e-06 -5.9709334936482480e-05 0.0000000000000000e+00  1.9817831929326653e-05 -7.8584910953101707e-05 0.0000000000000000e+00  4.1308875127745557e-05 -9.6405147465334346e-05 0.0000000000000000e+00  6.6489086805296790e-05 -1.1283070544526479e-04 0.0000000000000000e+00  9.4677852861742927e-05 -1.2745267672726948e-04 0.0000000000000000e+00  1.2505706723247060e-04 -1.3974985074683972e-04 0.0000000000000000e+00  1.5667882194901373e-04 -1.4902498475865655e-04 0.0000000000000000e+00  1.8849610559717995e-04 -1.5431573757233212e-04 0.0000000000000000e+00  2.1942781771839531e-04 -1.5427982052039900e-04 0.0000000000000000e+00  2.4837053673242953e-04 -1.4706806542049217e-04 0.0000000000000000e+00  2.7352696284684393e-04 -1.3023230521562332e-04 0.0000000000000000e+00  2.8745508187267237e-04 -1.0079497746491643e-04 0.0000000000000000e+00  2.5079525365525300e-04 -5.5993090998634190e-05 0.0000000000000000e+00  0.0000000000000000e+00 0.0000000000000000e+00 0.0000000000000000e+00  2.6784336788297406e-04 6.1552223310196042e-05 0.0000000000000000e+00  0.0000000000000000e+00 0.0000000000000000e+00 0.0000000000000000e+00  3.0877726229193555e-04 1.1257193653594605e-04 0.0000000000000000e+00  3.0071247031014859e-04 1.4789063869801250e-04 0.0000000000000000e+00  2.8236311091766209e-04 1.6965551525270609e-04 0.0000000000000000e+00  2.6030262228987720e-04 1.8053289159235638e-04 0.0000000000000000e+00  2.3590012756921947e-04 1.8287067724239082e-04 0.0000000000000000e+00  2.1004123466000112e-04 1.7855304631943011e-04 0.0000000000000000e+00  1.8369330275405814e-04 1.6903341000361569e-04 0.0000000000000000e+00  1.5785602184460780e-04 1.5542017619873011e-04 0.0000000000000000e+00  1.3347481227791246e-04 1.3856649849679502e-04 0.0000000000000000e+00  1.1139617614543631e-04 1.1914514700291177e-04 0.0000000000000000e+00  9.2345134550881692e-05 9.7705238935339478e-05 0.0000000000000000e+00  7.6912253828778022e-05 7.4713905244956104e-05 0.0000000000000000e+00  6.5551704014574227e-05 5.0586388909198424e-05 0.0000000000000000e+00  5.8583669180571447e-05 2.5707680253388537e-05 0.0000000000000000e+00  5.6196338865110372e-05 4.4770874693824519e-07 0.0000000000000000e+00  5.8448018152271895e-05 -2.4827641667708918e-05 0.0000000000000000e+00  6.5269014879855338e-05 -4.9748394468484324e-05 0.0000000000000000e+00  7.6464036455516765e-05 -7.3933254051418993e-05 0.0000000000000000e+00  9.1711704940036185e-05 -9.6982000059989815e-05 0.0000000000000000e+00  1.1056470666102773e-04 -1.1846327232661298e-04 0.0000000000000000e+00  1.3244758482605735e-04 -1.3789592053663744e-04 0.0000000000000000e+00  1.5666125864207498e-04 -1.5472067298836787e-04 0.0000000000000000e+00  1.8239908146752055e-04 -1.6825914150247974e-04 0.0000000000000000e+00  2.0877600175325079e-04 -1.7765834488726176e-04 0.0000000000000000e+00  2.3488883012973456e-04 -1.8182018133501061e-04 0.0000000000000000e+00  2.5991809317919183e-04 -1.7932195195935409e-04 0.0000000000000000e+00  2.8316376596475941e-04 -1.6834687629272983e-04 0.0000000000000000e+00  3.0331871125546269e-04 -1.4666351684531514e-04 0.0000000000000000e+00  3.1308941275538733e-04 -1.1173838368399180e-04 0.0000000000000000e+00  2.7076095931172261e-04 -6.1388896131222954e-05 0.0000000000000000e+00  0.0000000000000000e+00 0.0000000000000000e+00 0.0000000000000000e+00  2.8755374022076393e-04 6.4831188732889441e-05 0.0000000000000000e+00  0.0000000000000000e+00 0.0000000000000000e+00 0.0000000000000000e+00  3.3453517488270717e-04 1.1952074452194877e-04 0.0000000000000000e+00  3.3109511925465877e-04 1.5887034297129934e-04 0.0000000000000000e+00  3.1844391135919413e-04 1.8457002222856423e-04 0.0000000000000000e+00  3.0312244739699355e-04 1.9882110807328384e-04 0.0000000000000000e+00  2.8601324272453459e-04 2.0366151778139296e-04 0.0000000000000000e+00  2.6752215714942413e-04 2.0082905656954955e-04 0.0000000000000000e+00  2.4824563261835247e-04 1.9175160688840077e-04 0.0000000000000000e+00  2.2892540021750025e-04 1.7758783830126333e-04 0.0000000000000000e+00  2.1034012458561523e-04 1.5928361606023820e-04 0.0000000000000000e+00  1.9323557951134390e-04 1.3762669109953197e-04 0.0000000000000000e+00  1.7828094245202246e-04 1.1329253856322806e-04 0.0000000000000000e+00  1.6603999173860857e-04 8.6879948191015700e-05 0.0000000000000000e+00  1.5695754534196971e-04 5.8937826212310903e-05 0.0000000000000000e+00  1.5135389911743075e-04 2.9984755736372126e-05 0.0000000000000000e+00  1.4942109202204935e-04 5.2324456558119982e-07 0.0000000000000000e+00  1.5122097074209796e-04 -2.8949773151117455e-05 0.0000000000000000e+00  1.5668590157233696e-04 -5.7934435698486246e-05 0.0000000000000000e+00  1.6562020551146744e-04 -8.5920503010533160e-05 0.0000000000000000e+00  1.7770480875292047e-04 -1.1237833503469442e-04 0.0000000000000000e+00  1.9250042984683474e-04 -1.3674736731160756e-04 0.0000000000000000e+00  2.0945595558568956e-04 -1.5841833023304730e-04 0.0000000000000000e+00  2.2792391661508084e-04 -1.7670835999308930e-04 0.0000000000000000e+00  2.4719173100844444e-04 -1.9082731549467994e-04 0.0000000000000000e+00  2.6653238625787479e-04 -1.9983400854604739e-04 0.0000000000000000e+00  2.8528628560747598e-04 -2.0258583228544724e-04 0.0000000000000000e+00  3.0298233941556427e-04 -1.9768938206711183e-04 0.0000000000000000e+00  3.1937822269527351e-04 -1.8346660459964964e-04 0.0000000000000000e+00  3.3366127313682800e-04 -1.5796203476405512e-04 0.0000000000000000e+00  3.3865228732274562e-04 -1.1904302858412330e-04 0.0000000000000000e+00  2.9032416089081928e-04 -6.4933116460346775e-05 0.0000000000000000e+00  0.0000000000000000e+00 0.0000000000000000e+00 0.0000000000000000e+00  3.0672004829088287e-04 6.5960805132242328e-05 0.0000000000000000e+00  0.0000000000000000e+00 0.0000000000000000e+00 0.0000000000000000e+00  3.6011340034380060e-04 1.2237907015119590e-04 0.0000000000000000e+00  3.6194160034115993e-04 1.6408082958605330e-04 0.0000000000000000e+00  3.5575498498355165e-04 1.9244929487926443e-04 0.0000000000000000e+00  3.4805649768562070e-04 2.0930286816310510e-04 0.0000000000000000e+00  3.3925935839140137e-04 2.1635568376245852e-04 0.0000000000000000e+00  3.2928701743358940e-04 2.1512622372186181e-04 0.0000000000000000e+00  3.1833117636658782e-04 2.0692464084335507e-04 0.0000000000000000e+00  3.0682070996629769e-04 1.9287230144517423e-04 0.0000000000000000e+00  2.9530411190102087e-04 1.7393589523576126e-04 0.0000000000000000e+00  2.8436432677222788e-04 1.5096383832960398e-04 0.0000000000000000e+00  2.7455964784638213e-04 1.2471894038121586e-04 0.0000000000000000e+00  2.6638103679259392e-04 9.5905041534535208e-05 0.0000000000000000e+00  2.6022789658375974e-04 6.5187250441494038e-05 0.0000000000000000e+00  2.5639434235054132e-04 3.3207036162738706e-05 0.0000000000000000e+00  2.5505976471064889e-04 5.9318545096068988e-07 0.0000000000000000e+00  2.5628343634006163e-04 -3.2030023138511313e-