<?xml version="1.0"?>
<VTKFile type="UnstructuredGrid"  version="0.1"  >
<UnstructuredGrid>
<Piece  NumberOfPoints="759" NumberOfCells="1408">
<Points>
<DataArray  type="Float64"  NumberOfComponents="3"  format="ascii">0 0.46875 0  0.03125 0.46875 0  0.03125 0.515625 0  0 0.515625 0  0.0625 0.46875 0  0.0625 0.515625 0  0.09375 0.46875 0  0.09375 0.515625 0  0.125 0.46875 0  0.125 0.515625 0  0.15625 0.46875 0  0.15625 0.515625 0  0.1875 0.46875 0  0.1875 0.515625 0  0.21875 0.46875 0  0.21875 0.515625 0  0.25 0.46875 0  0.25 0.515625 0  0.28125 0.46875 0  0.28125 0.515625 0  0.3125 0.46875 0  0.3125 0.515625 0  0.34375 0.46875 0  0.34375 0.515625 0  0.375 0.46875 0  0.375 0.515625 0  0.40625 0.46875 0  0.40625 0.515625 0  0.4375 0.46875 0  0.4375 0.515625 0  0.46875 0.46875 0  0.46875 0.515625 0  0.5 0.46875 0  0.5 0.515625 0  0.53125 0.46875 0  0.53125 0.515625 0  0.5625 0.46875 0  0.5625 0.515625 0  0.59375 0.46875 0  0.59375 0.515625 0  0.625 0.46875 0  0.625 0.515625 0  0.65625 0.46875 0  0.65625 0.515625 0  0.6875 0.46875 0  0.6875 0.515625 0  0.71875 0.46875 0  0.71875 0.515625 0  0.75 0.46875 0  0.75 0.515625 0  0.78125 0.46875 0  0.78125 0.515625 0  0.8125 0.46875 0  0.8125 0.515625 0  0.84375 0.46875 0  0.84375 0.515625 0  0.875 0.46875 0  0.875 0.515625 0  0.90625 0.46875 0  0.90625 0.515625 0  0.9375 0.46875 0  0.9375 0.515625 0  0.96875 0.46875 0  0.96875 0.515625 0  1 0.46875 0  1 0.515625 0  0.03125 0.5625 0  0 0.5625 0  0.0625 0.5625 0  0.09375 0.5625 0  0.125 0.5625 0  0.15625 0.5625 0  0.1875 0.5625 0  0.21875 0.5625 0  0.25 0.5625 0  0.28125 0.5625 0  0.3125 0.5625 0  0.34375 0.5625 0  0.375 0.5625 0  0.40625 0.5625 0  0.4375 0.5625 0  0.46875 0.5625 0  0.5 0.5625 0  0.53125 0.5625 0  0.5625 0.5625 0  0.59375 0.5625 0  0.625 0.5625 0  0.65625 0.5625 0  0.6875 0.5625 0  0.71875 0.5625 0  0.75 0.5625 0  0.78125 0.5625 0  0.8125 0.5625 0  0.84375 0.5625 0  0.875 0.5625 0  0.90625 0.5625 0  0.9375 0.5625 0  0.96875 0.5625 0  1 0.5625 0  0.03125 0.609375 0  0 0.609375 0  0.0625 0.609375 0  0.09375 0.609375 0  0.125 0.609375 0  0.15625 0.609375 0  0.1875 0.609375 0  0.21875 0.609375 0  0.25 0.609375 0  0.28125 0.609375 0  0.3125 0.609375 0  0.34375 0.609375 0  0.375 0.609375 0  0.40625 0.609375 0  0.4375 0.609375 0  0.46875 0.609375 0  0.5 0.609375 0  0.53125 0.609375 0  0.5625 0.609375 0  0.59375 0.609375 0  0.625 0.609375 0  0.65625 0.609375 0  0.6875 0.609375 0  0.71875 0.609375 0  0.75 0.609375 0  0.78125 0.609375 0  0.8125 0.609375 0  0.84375 0.609375 0  0.875 0.609375 0  0.90625 0.609375 0  0.9375 0.609375 0  0.96875 0.609375 0  1 0.609375 0  0.03125 0.65625 0  0 0.65625 0  0.0625 0.65625 0  0.09375 0.65625 0  0.125 0.65625 0  0.15625 0.65625 0  0.1875 0.65625 0  0.21875 0.65625 0  0.25 0.65625 0  0.28125 0.65625 0  0.3125 0.65625 0  0.34375 0.65625 0  0.375 0.65625 0  0.40625 0.65625 0  0.4375 0.65625 0  0.46875 0.65625 0  0.5 0.65625 0  0.53125 0.65625 0  0.5625 0.65625 0  0.59375 0.65625 0  0.625 0.65625 0  0.65625 0.65625 0  0.6875 0.65625 0  0.71875 0.65625 0  0.75 0.65625 0  0.78125 0.65625 0  0.8125 0.65625 0  0.84375 0.65625 0  0.875 0.65625 0  0.90625 0.65625 0  0.9375 0.65625 0  0.96875 0.65625 0  1 0.65625 0  0.03125 0.703125 0  0 0.703125 0  0.0625 0.703125 0  0.09375 0.703125 0  0.125 0.703125 0  0.15625 0.703125 0  0.1875 0.703125 0  0.21875 0.703125 0  0.25 0.703125 0  0.28125 0.703125 0  0.3125 0.703125 0  0.34375 0.703125 0  0.375 0.703125 0  0.40625 0.703125 0  0.4375 0.703125 0  0.46875 0.703125 0  0.5 0.703125 0  0.53125 0.703125 0  0.5625 0.703125 0  0.59375 0.703125 0  0.625 0.703125 0  0.65625 0.703125 0  0.6875 0.703125 0  0.71875 0.703125 0  0.75 0.703125 0  0.78125 0.703125 0  0.8125 0.703125 0  0.84375 0.703125 0  0.875 0.703125 0  0.90625 0.703125 0  0.9375 0.703125 0  0.96875 0.703125 0  1 0.703125 0  0.03125 0.75 0  0 0.75 0  0.0625 0.75 0  0.09375 0.75 0  0.125 0.75 0  0.15625 0.75 0  0.1875 0.75 0  0.21875 0.75 0  0.25 0.75 0  0.28125 0.75 0  0.3125 0.75 0  0.34375 0.75 0  0.375 0.75 0  0.40625 0.75 0  0.4375 0.75 0  0.46875 0.75 0  0.5 0.75 0  0.53125 0.75 0  0.5625 0.75 0  0.59375 0.75 0  0.625 0.75 0  0.65625 0.75 0  0.6875 0.75 0  0.71875 0.75 0  0.75 0.75 0  0.78125 0.75 0  0.8125 0.75 0  0.84375 0.75 0  0.875 0.75 0  0.90625 0.75 0  0.9375 0.75 0  0.96875 0.75 0  1 0.75 0  0.03125 0.796875 0  0 0.796875 0  0.0625 0.796875 0  0.09375 0.796875 0  0.125 0.796875 0  0.15625 0.796875 0  0.1875 0.796875 0  0.21875 0.796875 0  0.25 0.796875 0  0.28125 0.796875 0  0.3125 0.796875 0  0.34375 0.796875 0  0.375 0.796875 0  0.40625 0.796875 0  0.4375 0.796875 0  0.46875 0.796875 0  0.5 0.796875 0  0.53125 0.796875 0  0.5625 0.796875 0  0.59375 0.796875 0  0.625 0.796875 0  0.65625 0.796875 0  0.6875 0.796875 0  0.71875 0.796875 0  0.75 0.796875 0  0.78125 0.796875 0  0.8125 0.796875 0  0.84375 0.796875 0  0.875 0.796875 0  0.90625 0.796875 0  0.9375 0.796875 0  0.96875 0.796875 0  1 0.796875 0  0.03125 0.84375 0  0 0.84375 0  0.0625 0.84375 0  0.09375 0.84375 0  0.125 0.84375 0  0.15625 0.84375 0  0.1875 0.84375 0  0.21875 0.84375 0  0.25 0.84375 0  0.28125 0.84375 0  0.3125 0.84375 0  0.34375 0.84375 0  0.375 0.84375 0  0.40625 0.84375 0  0.4375 0.84375 0  0.46875 0.84375 0  0.5 0.84375 0  0.53125 0.84375 0  0.5625 0.84375 0  0.59375 0.84375 0  0.625 0.84375 0  0.65625 0.84375 0  0.6875 0.84375 0  0.71875 0.84375 0  0.75 0.84375 0  0.78125 0.84375 0  0.8125 0.84375 0  0.84375 0.84375 0  0.875 0.84375 0  0.90625 0.84375 0  0.9375 0.84375 0  0.96875 0.84375 0  1 0.84375 0  0.03125 0.890625 0  0 0.890625 0  0.0625 0.890625 0  0.09375 0.890625 0  0.125 0.890625 0  0.15625 0.890625 0  0.1875 0.890625 0  0.21875 0.890625 0  0.25 0.890625 0  0.28125 0.890625 0  0.3125 0.890625 0  0.34375 0.890625 0  0.375 0.890625 0  0.40625 0.890625 0  0.4375 0.890625 0  0.46875 0.890625 0  0.5 0.890625 0  0.53125 0.890625 0  0.5625 0.890625 0  0.59375 0.890625 0  0.625 0.890625 0  0.65625 0.890625 0  0.6875 0.890625 0  0.71875 0.890625 0  0.75 0.890625 0  0.78125 0.890625 0  0.8125 0.890625 0  0.84375 0.890625 0  0.875 0.890625 0  0.90625 0.890625 0  0.9375 0.890625 0  0.96875 0.890625 0  1 0.890625 0  0.03125 0.9375 0  0 0.9375 0  0.0625 0.9375 0  0.09375 0.9375 0  0.125 0.9375 0  0.15625 0.9375 0  0.1875 0.9375 0  0.21875 0.9375 0  0.25 0.9375 0  0.28125 0.9375 0  0.3125 0.9375 0  0.34375 0.9375 0  0.375 0.9375 0  0.40625 0.9375 0  0.4375 0.9375 0  0.46875 0.9375 0  0.5 0.9375 0  0.53125 0.9375 0  0.5625 0.9375 0  0.59375 0.9375 0  0.625 0.9375 0  0.65625 0.9375 0  0.6875 0.9375 0  0.71875 0.9375 0  0.75 0.9375 0  0.78125 0.9375 0  0.8125 0.9375 0  0.84375 0.9375 0  0.875 0.9375 0  0.90625 0.9375 0  0.9375 0.9375 0  0.96875 0.9375 0  1 0.9375 0  0.03125 0.984375 0  0 0.984375 0  0.0625 0.984375 0  0.09375 0.984375 0  0.125 0.984375 0  0.15625 0.984375 0  0.1875 0.984375 0  0.21875 0.984375 0  0.25 0.984375 0  0.28125 0.984375 0  0.3125 0.984375 0  0.34375 0.984375 0  0.375 0.984375 0  0.40625 0.984375 0  0.4375 0.984375 0  0.46875 0.984375 0  0.5 0.984375 0  0.53125 0.984375 0  0.5625 0.984375 0  0.59375 0.984375 0  0.625 0.984375 0  0.65625 0.984375 0  0.6875 0.984375 0  0.71875 0.984375 0  0.75 0.984375 0  0.78125 0.984375 0  0.8125 0.984375 0  0.84375 0.984375 0  0.875 0.984375 0  0.90625 0.984375 0  0.9375 0.984375 0  0.96875 0.984375 0  1 0.984375 0  0.03125 1.03125 0  0 1.03125 0  0.0625 1.03125 0  0.09375 1.03125 0  0.125 1.03125 0  0.15625 1.03125 0  0.1875 1.03125 0  0.21875 1.03125 0  0.25 1.03125 0  0.28125 1.03125 0  0.3125 1.03125 0  0.34375 1.03125 0  0.375 1.03125 0  0.40625 1.03125 0  0.4375 1.03125 0  0.46875 1.03125 0  0.5 1.03125 0  0.53125 1.03125 0  0.5625 1.03125 0  0.59375 1.03125 0  0.625 1.03125 0  0.65625 1.03125 0  0.6875 1.03125 0  0.71875 1.03125 0  0.75 1.03125 0  0.78125 1.03125 0  0.8125 1.03125 0  0.84375 1.03125 0  0.875 1.03125 0  0.90625 1.03125 0  0.9375 1.03125 0  0.96875 1.03125 0  1 1.03125 0  0.03125 1.078125 0  0 1.078125 0  0.0625 1.078125 0  0.09375 1.078125 0  0.125 1.078125 0  0.15625 1.078125 0  0.1875 1.078125 0  0.21875 1.078125 0  0.25 1.078125 0  0.28125 1.078125 0  0.3125 1.078125 0  0.34375 1.078125 0  0.375 1.078125 0  0.40625 1.078125 0  0.4375 1.078125 0  0.46875 1.078125 0  0.5 1.078125 0  0.53125 1.078125 0  0.5625 1.078125 0  0.59375 1.078125 0  0.625 1.078125 0  0.65625 1.078125 0  0.6875 1.078125 0  0.71875 1.078125 0  0.75 1.078125 0  0.78125 1.078125 0  0.8125 1.078125 0  0.84375 1.078125 0  0.875 1.078125 0  0.90625 1.078125 0  0.9375 1.078125 0  0.96875 1.078125 0  1 1.078125 0  0.03125 1.125 0  0 1.125 0  0.0625 1.125 0  0.09375 1.125 0  0.125 1.125 0  0.15625 1.125 0  0.1875 1.125 0  0.21875 1.125 0  0.25 1.125 0  0.28125 1.125 0  0.3125 1.125 0  0.34375 1.125 0  0.375 1.125 0  0.40625 1.125 0  0.4375 1.125 0  0.46875 1.125 0  0.5 1.125 0  0.53125 1.125 0  0.5625 1.125 0  0.59375 1.125 0  0.625 1.125 0  0.65625 1.125 0  0.6875 1.125 0  0.71875 1.125 0  0.75 1.125 0  0.78125 1.125 0  0.8125 1.125 0  0.84375 1.125 0  0.875 1.125 0  0.90625 1.125 0  0.9375 1.125 0  0.96875 1.125 0  1 1.125 0  0.03125 1.171875 0  0 1.171875 0  0.0625 1.171875 0  0.09375 1.171875 0  0.125 1.171875 0  0.15625 1.171875 0  0.1875 1.171875 0  0.21875 1.171875 0  0.25 1.171875 0  0.28125 1.171875 0  0.3125 1.171875 0  0.34375 1.171875 0  0.375 1.171875 0  0.40625 1.171875 0  0.4375 1.171875 0  0.46875 1.171875 0  0.5 1.171875 0  0.53125 1.171875 0  0.5625 1.171875 0  0.59375 1.171875 0  0.625 1.171875 0  0.65625 1.171875 0  0.6875 1.171875 0  0.71875 1.171875 0  0.75 1.171875 0  0.78125 1.171875 0  0.8125 1.171875 0  0.84375 1.171875 0  0.875 1.171875 0  0.90625 1.171875 0  0.9375 1.171875 0  0.96875 1.171875 0  1 1.171875 0  0.03125 1.21875 0  0 1.21875 0  0.0625 1.21875 0  0.09375 1.21875 0  0.125 1.21875 0  0.15625 1.21875 0  0.1875 1.21875 0  0.21875 1.21875 0  0.25 1.21875 0  0.28125 1.21875 0  0.3125 1.21875 0  0.34375 1.21875 0  0.375 1.21875 0  0.40625 1.21875 0  0.4375 1.21875 0  0.46875 1.21875 0  0.5 1.21875 0  0.53125 1.21875 0  0.5
[...]
<PointData  Vectors="u"> 
<DataArray  type="Float64"  Name="u"  NumberOfComponents="3" format="ascii">1.3988826947420423e-02 7.1484518114371264e-04 0.0000000000000000e+00  1.6112713997424626e-02 3.9807124638612783e-03 0.0000000000000000e+00  1.7733260347250823e-02 4.2634656011250154e-03 0.0000000000000000e+00  1.5205781737576966e-02 9.3319138215655238e-04 0.0000000000000000e+00  1.5554612320756629e-02 7.2474095898646014e-03 0.0000000000000000e+00  1.7338667865590976e-02 7.8439472884838952e-03 0.0000000000000000e+00  1.4458373834401430e-02 1.0168045210513191e-02 0.0000000000000000e+00  1.6031764155533673e-02 1.1007307963798651e-02 0.0000000000000000e+00  1.3024583156338584e-02 1.2623045049305733e-02 0.0000000000000000e+00  1.4369887711991903e-02 1.3641951755108033e-02 0.0000000000000000e+00  1.1360971548213063e-02 1.4546701100226553e-02 0.0000000000000000e+00  1.2505606182707525e-02 1.5686330218604657e-02 0.0000000000000000e+00  9.5571066791418392e-03 1.5894803712594364e-02 0.0000000000000000e+00  1.0528079222799443e-02 1.7102161834046940e-02 0.0000000000000000e+00  7.6912229435224201e-03 1.6643415303077919e-02 0.0000000000000000e+00  8.5124075295756347e-03 1.7871589975534754e-02 0.0000000000000000e+00  5.8322634925355608e-03 1.6788567968047053e-02 0.0000000000000000e+00  6.5246623936511964e-03 1.7996232663568666e-02 0.0000000000000000e+00  4.0408369436068558e-03 1.6345037600308410e-02 0.0000000000000000e+00  4.6228026928058583e-03 1.7496044531616267e-02 0.0000000000000000e+00  2.3698087809255557e-03 1.5344711959489415e-02 0.0000000000000000e+00  2.8574885615183284e-03 1.6407675125742913e-02 0.0000000000000000e+00  8.6480205813369059e-04 1.3834635141197309e-02 0.0000000000000000e+00  1.2722871953906713e-03 1.4782656733548543e-02 0.0000000000000000e+00  -4.3543995445817008e-04 1.1875025155790080e-02 0.0000000000000000e+00  -9.5768623301180236e-05 1.2685396402120809e-02 0.0000000000000000e+00  -1.4986711795694613e-03 9.5371914024366591e-03 0.0000000000000000e+00  -1.2160215921856790e-03 1.0191223947204838e-02 0.0000000000000000e+00  -2.2989229578395652e-03 6.9015410909040575e-03 0.0000000000000000e+00  -2.0638549402577015e-03 7.3843804976220437e-03 0.0000000000000000e+00  -2.8163014070510953e-03 4.0555522478875981e-03 0.0000000000000000e+00  -2.6206548746316436e-03 4.3561184849754625e-03 0.0000000000000000e+00  -3.0368681022527604e-03 1.0918316874516765e-03 0.0000000000000000e+00  -2.8735974283678775e-03 1.2027621659792165e-03 0.0000000000000000e+00  -2.9525785320404629e-03 -1.8938608164841516e-03 0.0000000000000000e+00  -2.8157522481382872e-03 -1.9761476367688513e-03 0.0000000000000000e+00  -2.5613435103486134e-03 -4.8045612342227251e-03 0.0000000000000000e+00  -2.4461143998375286e-03 -5.0797801147012380e-03 0.0000000000000000e+00  -1.8671228420167520e-03 -7.5441306435546076e-03 0.0000000000000000e+00  -1.7698427863800277e-03 -8.0079369625855271e-03 0.0000000000000000e+00  -8.8010045601589787e-04 -1.0019326573087720e-02 0.0000000000000000e+00  -7.9844781884837873e-04 -1.0663099732508905e-02 0.0000000000000000e+00  3.8308129467578438e-04 -1.2142009327652980e-02 0.0000000000000000e+00  4.4977699156130858e-04 -1.2952548222145541e-02 0.0000000000000000e+00  1.8990173061378068e-03 -1.3831434571883921e-02 0.0000000000000000e+00  1.9494063989770494e-03 -1.4790648263711396e-02 0.0000000000000000e+00  3.6372847930867839e-03 -1.5016706764883283e-02 0.0000000000000000e+00  3.6673900099301860e-03 -1.6101241560083905e-02 0.0000000000000000e+00  5.5601441463640705e-03 -1.5639307510611048e-02 0.0000000000000000e+00  5.5626822865696215e-03 -1.6820194955435980e-02 0.0000000000000000e+00  7.6223047025952952e-03 -1.5655732161415074e-02 0.0000000000000000e+00  7.5857299858927999e-03 -1.6897994962084981e-02 0.0000000000000000e+00  9.7705306711840956e-03 -1.5040120613034332e-02 0.0000000000000000e+00  9.6780810208886934e-03 -1.6302389146689193e-02 0.0000000000000000e+00  1.1942404384065764e-02 -1.3786895016320919e-02 0.0000000000000000e+00  1.1771219115828655e-02 -1.5020925070285265e-02 0.0000000000000000e+00  1.4060754310758773e-02 -1.1913459294292127e-02 0.0000000000000000e+00  1.3782598548261906e-02 -1.3063442282896453e-02 0.0000000000000000e+00  1.6007705355110969e-02 -9.4639922442889095e-03 0.0000000000000000e+00  1.5596826154617891e-02 -1.0465090679485789e-02 0.0000000000000000e+00  1.7507220220198121e-02 -6.5210051999606807e-03 0.0000000000000000e+00  1.6980346749852462e-02 -7.2949044958055620e-03 0.0000000000000000e+00  1.7692355626212384e-02 -3.2771111265259660e-03 0.0000000000000000e+00  1.7240514104039803e-02 -3.7086633485970059e-03 0.0000000000000000e+00  1.5007808546219664e-02 -3.0087553816671191e-04 0.0000000000000000e+00  1.4421010146233296e-02 -4.1222955793466750e-04 0.0000000000000000e+00  1.9635061803848670e-02 5.0595889462529192e-03 0.0000000000000000e+00  1.7038975910380109e-02 1.3997440697668430e-03 0.0000000000000000e+00  1.9120036004760213e-02 9.2977549970451184e-03 0.0000000000000000e+00  1.7739576534156389e-02 1.2989101973682929e-02 0.0000000000000000e+00  1.5969710713151127e-02 1.6006671666417061e-02 0.0000000000000000e+00  1.3978881115755386e-02 1.8302000736620836e-02 0.0000000000000000e+00  1.1869429773475796e-02 1.9850779457901573e-02 0.0000000000000000e+00  9.7227650011170019e-03 2.0648438798643875e-02 0.0000000000000000e+00  7.6091496226606834e-03 2.0709218101301486e-02 0.0000000000000000e+00  5.5901995763883898e-03 2.0064856762663761e-02 0.0000000000000000e+00  3.7190546232817997e-03 1.8763075804459423e-02 0.0000000000000000e+00  2.0413728506467406e-03 1.6865713268781106e-02 0.0000000000000000e+00  5.9539039559523984e-04 1.4446912218157046e-02 0.0000000000000000e+00  -5.8718501110478620e-04 1.1591141460847065e-02 0.0000000000000000e+00  -1.4812424261338424e-03 8.3914256694666844e-03 0.0000000000000000e+00  -2.0676128396335271e-03 4.9474615389449661e-03 0.0000000000000000e+00  -2.3331825650445941e-03 1.3639540236625254e-03 0.0000000000000000e+00  -2.2705984284569088e-03 -2.2511754136280860e-03 0.0000000000000000e+00  -1.8786008112388929e-03 -5.7884354087900736e-03 0.0000000000000000e+00  -1.1620057493590187e-03 -9.1385961823735352e-03 0.0000000000000000e+00  -1.3225700795346340e-04 -1.2194489443910415e-02 0.0000000000000000e+00  1.1922865856010974e-03 -1.4853044635156597e-02 0.0000000000000000e+00  2.7855640267427798e-03 -1.7017390048223686e-02 0.0000000000000000e+00  4.6134256645496384e-03 -1.8599205611887364e-02 0.0000000000000000e+00  6.6327583775535126e-03 -1.9521153541588687e-02 0.0000000000000000e+00  8.7910744808980708e-03 -1.9719481917631686e-02 0.0000000000000000e+00  1.1025636281461020e-02 -1.9146581013652395e-02 0.0000000000000000e+00  1.3262383842859257e-02 -1.7773497422257766e-02 0.0000000000000000e+00  1.5411202404358672e-02 -1.5592268364596736e-02 0.0000000000000000e+00  1.7345080290947539e-02 -1.2618870681136325e-02 0.0000000000000000e+00  1.8801833682914305e-02 -8.9030223212688293e-03 0.0000000000000000e+00  1.8970855925433770e-02 -4.6045642443509407e-03 0.0000000000000000e+00  1.5514516372288685e-02 -8.5952856936157018e-04 0.0000000000000000e+00  2.2513178319711339e-02 6.0229624386826421e-03 0.0000000000000000e+00  1.9627847267573956e-02 1.8658274288135951e-03 0.0000000000000000e+00  2.1920002770196741e-02 1.1027328803201425e-02 0.0000000000000000e+00  2.0420133143384315e-02 1.5337073256876929e-02 0.0000000000000000e+00  1.8506488681445232e-02 1.8803925578435004e-02 0.0000000000000000e+00  1.6355069179260617e-02 2.1391913099818544e-02 0.0000000000000000e+00  1.4075828035259877e-02 2.3092897695619785e-02 0.0000000000000000e+00  1.1758094740582200e-02 2.3918573036850754e-02 0.0000000000000000e+00  9.4792621471333806e-03 2.3898688382229534e-02 0.0000000000000000e+00  7.3057856093403234e-03 2.3079627261541089e-02 0.0000000000000000e+00  5.2951129295033608e-03 2.1522698687989915e-02 0.0000000000000000e+00  3.4953104716581125e-03 1.9302390303855547e-02 0.0000000000000000e+00  1.9468575276630957e-03 1.6504445562319985e-02 0.0000000000000000e+00  6.8232180325798796e-04 1.3224164753213023e-02 0.0000000000000000e+00  -2.7210745967477790e-04 9.5645865784086456e-03 0.0000000000000000e+00  -8.9699814357314218e-04 5.6350164885312637e-03 0.0000000000000000e+00  -1.1785119611400091e-03 1.5493810521922747e-03 0.0000000000000000e+00  -1.1089999523292175e-03 -2.5750792526850010e-03 0.0000000000000000e+00  -6.8641623969258926e-04 -6.6193807285523099e-03 0.0000000000000000e+00  8.4859672496488708e-05 -1.0464149967021710e-02 0.0000000000000000e+00  1.1940921863847300e-03 -1.3991323548438071e-02 0.0000000000000000e+00  2.6230119009910163e-03 -1.7085791937931440e-02 0.0000000000000000e+00  4.3454909593398823e-03 -1.9637422301375024e-02 0.0000000000000000e+00  6.3261837153959612e-03 -2.1543155650074947e-02 0.0000000000000000e+00  8.5200487844775599e-03 -2.2709432358717589e-02 0.0000000000000000e+00  1.0870968627734890e-02 -2.3054693487401415e-02 0.0000000000000000e+00  1.3311295529277657e-02 -2.2512030914127994e-02 0.0000000000000000e+00  1.5759826693457806e-02 -2.1031753535865894e-02 0.0000000000000000e+00  1.8116806509125519e-02 -1.8583989982520092e-02 0.0000000000000000e+00  2.0238343319772808e-02 -1.5162314702840659e-02 0.0000000000000000e+00  2.1817168990038625e-02 -1.0797380335416912e-02 0.0000000000000000e+00  2.1877854563049675e-02 -5.6662784567253800e-03 0.0000000000000000e+00  1.7676239447811347e-02 -1.3606306907370418e-03 0.0000000000000000e+00  2.6386685869633837e-02 7.0889985581191039e-03 0.0000000000000000e+00  2.3015712987423234e-02 2.3499983536805782e-03 0.0000000000000000e+00  2.5743389766916050e-02 1.2936858901066278e-02 0.0000000000000000e+00  2.4112083645262093e-02 1.7922310685268276e-02 0.0000000000000000e+00  2.2035681608894148e-02 2.1876624755258006e-02 0.0000000000000000e+00  1.9703347152180060e-02 2.4778210654272555e-02 0.0000000000000000e+00  1.7235322934920631e-02 2.6637252041638731e-02 0.0000000000000000e+00  1.4730301222344292e-02 2.7484153799699994e-02 0.0000000000000000e+00  1.2272195168822556e-02 2.7366770453492655e-02 0.0000000000000000e+00  9.9336105225896164e-03 2.6348563820612136e-02 0.0000000000000000e+00  7.7751566613324039e-03 2.4506656302339287e-02 0.0000000000000000e+00  5.8481072274033236e-03 2.1929935954358961e-02 0.0000000000000000e+00  4.1936103760206343e-03 1.8717210124288782e-02 0.0000000000000000e+00  2.8455839944876602e-03 1.4975472159808803e-02 0.0000000000000000e+00  1.8297349110792272e-03 1.0818451861989663e-02 0.0000000000000000e+00  1.1661781635583363e-03 6.3651741782396022e-03 0.0000000000000000e+00  8.6829743402015355e-04 1.7389229634644056e-03 0.0000000000000000e+00  9.4466864891606201e-04 -2.9339937735998424e-03 0.0000000000000000e+00  1.3975536003960074e-03 -7.5250799558038445e-03 0.0000000000000000e+00  2.2240039409629352e-03 -1.1904899166819581e-02 0.0000000000000000e+00  3.4140175918127968e-03 -1.5944077820248068e-02 0.0000000000000000e+00  4.9507501384379905e-03 -1.9514836810834178e-02 0.0000000000000000e+00  6.8083526659172226e-03 -2.2492506465179973e-02 0.0000000000000000e+00  8.9516844265521145e-03 -2.4757560922753951e-02 0.0000000000000000e+00  1.1334086485691192e-02 -2.6197818578837306e-02 0.0000000000000000e+00  1.3896876160740304e-02 -2.6711028861127594e-02 0.0000000000000000e+00  1.6567388371471401e-02 -2.6207630243537033e-02 0.0000000000000000e+00  1.9257605514001668e-02 -2.4613677464143554e-02 0.0000000000000000e+00  2.1857083354308058e-02 -2.1874041592836905e-02 0.0000000000000000e+00  2.4202749990372790e-02 -1.7957352170247541e-02 0.0000000000000000e+00  2.5932390560362780e-02 -1.2874439531595035e-02 0.0000000000000000e+00  2.5868017288630030e-02 -6.8224725033577587e-03 0.0000000000000000e+00  2.0723392959311086e-02 -1.8591054857011811e-03 0.0000000000000000e+00  3.1301678469379486e-02 8.2536145459075980e-03 0.0000000000000000e+00  2.7244525149010837e-02 2.8738232673234522e-03 0.0000000000000000e+00  3.0636042042855516e-02 1.5016880166159699e-02 0.0000000000000000e+00  2.8869402062618770e-02 2.0730175284366593e-02 0.0000000000000000e+00  2.6624319544081239e-02 2.5204516063064356e-02 0.0000000000000000e+00  2.4109325143226095e-02 2.8434560792302045e-02 0.0000000000000000e+00  2.1456657377285776e-02 3.0451671993322937e-02 0.0000000000000000e+00  1.8773065633943067e-02 3.1307974250151728e-02 0.0000000000000000e+00  1.6149766020424158e-02 3.1072545239924608e-02 0.0000000000000000e+00  1.3662926944226064e-02 2.9828730532300243e-02 0.0000000000000000e+00  1.1376707593811194e-02 2.7671958260226930e-02 0.0000000000000000e+00  9.3423473597543227e-03 2.4707447209548240e-02 0.0000000000000000e+00  7.6020405102285105e-03 2.1048435913417516e-02 0.0000000000000000e+00  6.1877198351045415e-03 1.6814454739513703e-02 0.0000000000000000e+00  5.1252368658338317e-03 1.2130127266661074e-02 0.0000000000000000e+00  4.4325062477724537e-03 7.1241412666198049e-03 0.0000000000000000e+00  4.1235177795250202e-03 1.9285043406706574e-03 0.0000000000000000e+00  4.2057824068785386e-03 -3.3219287215907516e-03 0.0000000000000000e+00  4.6833778918844663e-03 -8.4900302041855235e-03 0.0000000000000000e+00  5.5539473850025594e-03 -1.3436702027836540e-02 0.0000000000000000e+00  6.8104191963463913e-03 -1.8021653393175366e-02 0.0000000000000000e+00  8.4376462911955261e-03 -2.2104071223203601e-02 0.0000000000000000e+00  1.0412725244743274e-02 -2.5543964678487026e-02 0.0000000000000000e+00  1.2701707776582713e-02 -2.8203682036474644e-02 0.0000000000000000e+00  1.5259045366334422e-02 -2.9950080626230311e-02 0.0000000000000000e+00  1.8024653273965938e-02 -3.0657090537392153e-02 0.0000000000000000e+00  2.0923063765664197e-02 -3.0208763798288497e-02 0.0000000000000000e+00  2.3860072275133613e-02 -2.8502764189272899e-02 0.0000000000000000e+00  2.6715267382353497e-02 -2.5454466190056479e-02 0.0000000000000000e+00  2.9304090982738399e-02 -2.1003670126892797e-02 0.0000000000000000e+00  3.1199269121445751e-02 -1.5138460420008578e-02 0.0000000000000000e+00  3.0974790657975267e-02 -8.0766616881077207e-03 0.0000000000000000e+00  2.4646397562326082e-02 -2.3741433100857587e-03 0.0000000000000000e+00  3.7351179781331428e-02 9.5171646359889263e-03 0.0000000000000000e+00  3.2387897755225506e-02 3.4541551357452705e-03 0.0000000000000000e+00  3.6696010078638951e-02 1.7263681983545241e-02 0.0000000000000000e+00  3.4799598237922058e-02 2.3751399221579952e-02 0.0000000000000000e+00  3.2393747609477476e-02 2.8770493466381462e-02 0.0000000000000000e+00  2.9713274869544719e-02 3.2335091256808189e-02 0.0000000000000000e+00  2.6902197215500526e-02 3.4501498931095963e-02 0.0000000000000000e+00  2.4075525815244608e-02 3.5347663158977818e-02 0.0000000000000000e+00  2.1328694111692865e-02 3.4967667257762271e-02 0.0000000000000000e+00  1.8740767542383387e-02 3.3468304944763778e-02 0.0000000000000000e+00  1.6374980423306821e-02 3.0966043785793717e-02 0.0000000000000000e+00  1.4281964827904470e-02 2.7584653697963459e-02 0.0000000000000000e+00  1.2499829274759323e-02 2.3453013701433725e-02 0.0000000000000000e+00  1.1058754099154657e-02 1.8703820950391411e-02 0.0000000000000000e+00  9.9797281188832056e-03 1.3472373205607489e-02 0.0000000000000000e+00  9.2798767028667659e-03 7.8962982868037556e-03 0.0000000000000000e+00  8.9696503558150294e-03 2.1151820510151146e-03 0.0000000000000000e+00  9.0580020228420433e-03 -3.7290764499202265e-03 0.0000000000000000e+00  9.5481247325443393e-03 -9.4920947232631416e-03 0.0000000000000000e+00  1.0441560637026193e-02 -1.5026608504676473e-02 0.0000000000000000e+00  1.1733313633978752e-02 -2.0182253591811129e-02 0.0000000000000000e+00  1.3413812437543391e-02 -2.4805739071254652e-02 0.0000000000000000e+00  1.5464051996492298e-02 -2.8741276203243182e-02 0.0000000000000000e+00  1.7855488874756791e-02 -3.1831850484557521e-02 0.0000000000000000e+00  2.0545816891598987e-02 -3.3920961953317064e-02 0.0000000000000000e+00  2.3477538649754662e-02 -3.4855315239957108e-02 0.0000000000000000e+00  2.6574686527119380e-02 -3.4488171206348117e-02 0.0000000000000000e+00  2.9739747210587579e-02 -3.2683575980521191e-02 0.0000000000000000e+00  3.2843223383912670e-02 -2.9321681467481472e-02 0.0000000000000000e+00  3.5677795815611625e-02 -2.4307556151199766e-02 0.0000000000000000e+00  3.7739404314692769e-02 -1.7601267988374688e-02 0.0000000000000000e+00  3.7301596864232123e-02 -9.4406198529755226e-03 0.0000000000000000e+00  2.9504226110696787e-02 -2.9303925696209537e-03 0.0000000000000000e+00  4.4665187942519065e-02 1.0875423125843553e-02 0.0000000000000000e+00  3.8546288347821582e-02 4.1045875146432749e-03 0.0000000000000000e+00  4.4062402273607151e-02 1.9664613677950332e-02 0.0000000000000000e+00  4.2052218477733112e-02 2.6961513100445984e-02 0.0000000000000000e+00  3.9509118111628952e-02 3.2535698162253920e-02 0.0000000000000000e+00  3.6700294441355565e-02 3.6425641806442470e-02 0.0000000000000000e+00  3.3782272253105795e-02 3.8718111855213365e-02 0.0000000000000000e+00  3.0876220486392214e-02 3.9522353481202449e-02 0.0000000000000000e+00  2.8079626504230341e-02 3.8962515170254099e-02 0.0000000000000000e+00  2.5469948050323959e-02 3.7173072377180157e-02 0.0000000000000000e+00  2.3106745611737766e-02 3.4294915348909404e-02 0.0000000000000000e+00  2.1034152679873269e-02 3.0472476343042763e-02 0.0000000000000000e+00  1.9284328869287035e-02 2.5851527000924631e-02 0.0000000000000000e+00  1.7879243297086782e-02 2.0577809824635258e-02 0.0000000000000000e+00  1.6835146275191660e-02 1.4796623521141057e-02 0.0000000000000000e+00  1.6162180182555951e-02 8.6526841608395039e-03 0.0000000000000000e+00  1.5869740300197933e-02 2.2911593004831402e-03 0.0000000000000000e+00  1.5963254284663587e-02 -4.1416993233976728e-03 0.0000000000000000e+00  1.6449377041125694e-02 -1.0496767861758091e-02 0.0000000000000000e+00  1.7330675555032284e-02 -1.6621117665615977e-02 0.0000000000000000e+00  1.8609484758942609e-02 -2.2356427948906070e-02 0.0000000000000000e+00  2.0281666926108333e-02 -2.7538241241022218e-02 0.0000000000000000e+00  2.2337730532762671e-02 -3.1995566794346758e-02 0.0000000000000000e+00  2.4757066724066683e-02 -3.5551174249499114e-02 0.0000000000000000e+00  2.7506332303457996e-02 -3.8023163220784244e-02 0.0000000000000000e+00  3.0534682560634480e-02 -3.9227278880587163e-02 0.0000000000000000e+00  3.3770741171619753e-02 -3.8980841759689140e-02 0.0000000000000000e+00  3.7117371414619141e-02 -3.7107665653695394e-02 0.0000000000000000e+00  4.0438722052351342e-02 -3.3444982939457302e-02 0.0000000000000000e+00  4.3503736284365976e-02 -2.7854743885614496e-02 0.0000000000000000e+00  4.5718883346941720e-02 -2.0260926697351009e-02 0.0000000000000000e+00  4.4996569680005802e-02 -1.0918960309484855e-02 0.0000000000000000e+00  3.5395405068127439e-02 -3.5476521478778780e-03 0.0000000000000000e+00  5.3404204699497325e-02 1.2317762309295590e-02 0.0000000000000000e+00  4.5841716765002302e-02 4.8368937426149939e-03 0.0000000000000000e+00  5.2906813939224015e-02 2.2193654790111025e-02 0.0000000000000000e+00  5.0811009193720766e-02 3.0314782576244054e-02 0.0000000000000000e+00  4.8171835597431101e-02 3.6431764614943810e-02 0.0000000000000000e+00  4.5295601079864647e-02 4.0614624105938087e-02 0.0000000000000000e+00  4.2351290432804056e-02 4.2988587244316562e-02 0.0000000000000000e+00  3.9463523212122723e-02 4.3701614387039150e-02 0.0000000000000000e+00  3.6727581237230265e-02 4.2914652309274465e-02 0.0000000000000000e+00  3.4214303847723629e-02 4.0795067072174847e-02 0.0000000000000000e+00  3.1973488840995108e-02 3.7512089186600761e-02 0.0000000000000000e+00  3.0037704917301598e-02 3.3232983497292055e-02 0.0000000000000000e+00  2.8426477424609905e-02 2.8121117307864318e-02 0.0000000000000000e+00  2.7150301907374035e-02 2.2334653872570078e-02 0.0000000000000000e+00  2.6214055729504727e-02 1.6026826115463789e-02 0.0000000000000000e+00  2.5620564120925705e-02 9.3468503389818013e-03 0.0000000000000000e+00  2.5372113721650134e-02 2.4415456289938438e-03 0.0000000000000000e+00  2.5473538362595090e-02 -4.5421029785054764e-03 0.0000000000000000e+00