<?xml version="1.0"?>
<VTKFile type="UnstructuredGrid"  version="0.1"  >
<UnstructuredGrid>
<Piece  NumberOfPoints="825" NumberOfCells="1536">
<Points>
<DataArray  type="Float64"  NumberOfComponents="3"  format="ascii">-1.043738836868172e-21 0.5 0  0.06249999999285771 0.5000000004264468 0  0.06249999849668878 0.5625000014560547 0  -2.870538430946588e-09 0.562500000083161 0  0.1249999998828217 0.5000000006677547 0  0.1249999989037074 0.5625000016084918 0  0.1874999994671344 0.5000000004723087 0  0.1874999987266304 0.562500001330237 0  0.2499999989581275 0.5000000005276569 0  0.249999998192559 0.5625000009699358 0  0.3124999981646736 0.5000000003948655 0  0.3124999973731751 0.5625000003726348 0  0.3749999964550272 0.4999999992212388 0  0.3749999961616132 0.5624999994095542 0  0.4374999945805789 0.4999999980683111 0  0.4374999947828032 0.562499998425824 0  0.4999999927584854 0.4999999969758652 0  0.4999999934431856 0.5624999973608937 0  0.5624999908431915 0.4999999953170208 0  0.562499992246472 0.5624999963831139 0  0.6249999903682222 0.4999999952821454 0  0.6249999915481937 0.5624999961191831 0  0.6874999905988128 0.4999999957235888 0  0.6874999913554005 0.5624999959789375 0  0.7499999900748276 0.4999999945379868 0  0.7499999912383062 0.5624999955396387 0  0.8124999904725144 0.4999999947532109 0  0.8124999914111894 0.5624999954884027 0  0.8749999913220609 0.4999999951058173 0  0.8749999918324686 0.5624999953217489 0  0.9374999912105723 0.4999999937589433 0  0.9374999921736097 0.5624999948332552 0  0.9999999920206569 0.4999999939982226 0  0.9999999926898777 0.562499994746578 0  1.062499993077475 0.4999999942559593 0  1.062499993329591 0.5624999945240654 0  1.12499999305561 0.4999999928944103 0  1.124999993800359 0.5624999939962281 0  1.187499993866067 0.4999999930341824 0  1.187499994357903 0.562499993886546 0  1.249999994961768 0.4999999933876429 0  1.249999994979246 0.5624999937281741 0  1.312499994932943 0.4999999922141542 0  1.312499995375658 0.5624999933401587 0  1.374999995602658 0.4999999925042205 0  1.374999995782827 0.5624999933987763 0  1.437499996380133 0.4999999929450824 0  1.43749999617738 0.5624999935131162 0  1.499999996308708 0.4999999924808397 0  1.499999996321554 0.5624999937061315 0  1.56249999681216 0.4999999937762921 0  1.562499996485431 0.5624999945642315 0  1.624999997553558 0.4999999954448645 0  1.624999996736539 0.5624999956199452 0  1.687499997973091 0.4999999963383296 0  1.687499996901294 0.562499996664848 0  1.749999998753607 0.4999999977897022 0  1.749999997095147 0.5624999979265736 0  1.812499999511759 0.4999999989317496 0  1.812499997279983 0.5624999991367449 0  1.87499999990306 0.4999999994877219 0  1.874999997306089 0.5625000003702255 0  1.937500000175073 0.5000000000640749 0  1.937499997454366 0.5625000019542344 0  2 0.5 0  1.999999999847683 0.5625000036438882 0  0.06249999732513371 0.6250000016609465 0  -3.613598865023189e-09 0.6250000006639452 0  0.1249999978245639 0.6250000018882598 0  0.1874999978490785 0.6250000016609595 0  0.2499999974997878 0.6250000012047138 0  0.3124999968680719 0.6250000005530337 0  0.3749999959881348 0.6249999997282556 0  0.4374999949685632 0.6249999988367809 0  0.4999999939507547 0.6249999979454471 0  0.5624999930349773 0.6249999971947878 0  0.6249999923749086 0.6249999967368343 0  0.6874999920465765 0.6249999964337396 0  0.7499999919365129 0.6249999961541737 0  0.8124999920209682 0.62499999594976 0  0.874999992291305 0.6249999957305765 0  0.9374999926365176 0.6249999954577283 0  0.9999999930556037 0.6249999952308254 0  1.062499993551992 0.624999994979474 0  1.124999994028834 0.6249999946814829 0  1.187499994492581 0.6249999944559608 0  1.249999994956391 0.6249999942593435 0  1.312499995334208 0.6249999940823121 0  1.374999995631596 0.6249999940477188 0  1.437499995857519 0.624999994155374 0  1.499999995954849 0.6249999944588284 0  1.562499995978761 0.6249999950714379 0  1.624999995987652 0.6249999959187852 0  1.68749999595792 0.6249999969292723 0  1.749999995913131 0.6249999981087946 0  1.812499995877419 0.624999999418231 0  1.874999995901122 0.6250000008863422 0  1.937499996309567 0.6250000024778033 0  1.999999997518367 0.6250000033275318 0  0.06249999659793073 0.68750000153327 0  -3.920908799697035e-09 0.6875000008383514 0  0.1249999969771185 0.6875000017682016 0  0.1874999970687503 0.6875000016172522 0  0.2499999968696159 0.6875000012081299 0  0.3124999964263447 0.6875000006177462 0  0.3749999957924436 0.6874999999039181 0  0.4374999950449191 0.6874999991366686 0  0.4999999942751073 0.6874999983890664 0  0.562499993570876 0.6874999977457812 0  0.6249999930252994 0.6874999972624061 0  0.6874999926922261 0.687499996905479 0  0.7499999925547539 0.6874999966188473 0  0.8124999925887868 0.6874999963759332 0  0.8749999927677858 0.6874999961429872 0  0.9374999930439075 0.6874999959028099 0  0.9999999933900299 0.6874999956655493 0  1.062499993784149 0.687499995422844 0  1.124999994185079 0.6874999951770415 0  1.187499994571711 0.68749999495757 0  1.249999994928847 0.6874999947756057 0  1.312499995222655 0.687499994649588 0  1.374999995436534 0.68749999462457 0  1.437499995562348 0.6874999947372332 0  1.499999995589472 0.6874999950300287 0  1.562499995538868 0.6874999955419586 0  1.624999995441902 0.6874999962652232 0  1.687499995317077 0.6874999971739992 0  1.749999995195409 0.6874999982484853 0  1.812499995126362 0.6874999994562159 0  1.874999995198071 0.6875000007324281 0  1.937499995541472 0.68750000187105 0  1.999999996044608 0.6875000024675978 0  0.06249999613977484 0.750000001274338 0  -4.121711800707981e-09 0.7500000007959524 0  0.1249999963766972 0.7500000014753873 0  0.1874999964607418 0.7500000013839444 0  0.2499999963481037 0.7500000010595237 0  0.3124999960491434 0.7500000005680602 0  0.3749999956008077 0.7499999999700211 0  0.4374999950577333 0.7499999993256831 0  0.49999999448483 0.749999998695053 0  0.5624999939495927 0.7499999981328989 0  0.6249999935154714 0.7499999976704097 0  0.6874999932236292 0.7499999973011402 0  0.7499999930824086 0.7499999969989856 0  0.8124999930813342 0.7499999967384086 0  0.874999993199457 0.749999996497262 0  0.9374999934079574 0.7499999962624928 0  0.9999999936801128 0.7499999960308203 0  1.062499993990283 0.7499999958014795 0  1.124999994310319 0.7499999955803442 0  1.187499994616588 0.7499999953819249 0  1.249999994888309 0.7499999952224824 0  1.31249999510357 0.7499999951235703 0  1.374999995246231 0.7499999951150194 0  1.437499995307434 0.7499999952287952 0  1.499999995286514 0.7499999954960803 0  1.562499995197387 0.7499999959390857 0  1.624999995063993 0.7499999965600397 0  1.687499994914364 0.7499999973440357 0  1.749999994784887 0.749999998262159 0  1.812499994722846 0.7499999992616082 0  1.874999994780252 0.7500000002437605 0  1.937499994968598 0.750000001042732 0  1.999999995150774 0.7500000015114204 0  0.06249999582957055 0.8125000009855116 0  -4.290101935202734e-09 0.8125000006610585 0  0.1249999959601499 0.812500001140533 0  0.1874999960140457 0.8125000010845853 0  0.2499999959443155 0.8125000008383289 0  0.3124999957431076 0.8125000004461619 0  0.3749999954294277 0.8124999999581787 0  0.4374999950394792 0.8124999994247032 0  0.4999999946193223 0.812499998893127 0  0.5624999942183452 0.8124999984026001 0  0.6249999938820219 0.8124999979758977 0  0.6874999936426079 0.8124999976154084 0  0.7499999935138573 0.8124999973094245 0  0.8124999934938623 0.8124999970415416 0  0.874999993569783 0.8124999967965701 0  0.9374999937220476 0.8124999965642226 0  0.9999999939286807 0.8124999963399475 0  1.062499994166853 0.8124999961239601 0  1.124999994413411 0.8124999959218083 0  1.187499994646804 0.8124999957443902 0  1.249999994847522 0.8124999956066647 0  1.31249999499826 0.8124999955278368 0  1.374999995086212 0.8124999955310652 0  1.437499995105125 0.8124999956408591 0  1.499999995057134 0.8124999958792926 0  1.562499994954403 0.8124999962604051 0  1.624999994817798 0.8124999967847446 0  1.687499994674477 0.8124999974369163 0  1.749999994556513 0.8124999981830712 0  1.812499994496752 0.8124999989650459 0  1.87499999451557 0.812499999694872 0  1.937499994593022 0.8125000002677537 0  1.999999994647568 0.8125000006247275 0  0.062499995604992 0.8750000007152974 0  -4.442944742846473e-09 0.875000000498523 0  0.1249999956685364 0.8750000008258642 0  0.1874999956941275 0.8750000007870118 0  0.249999995644667 0.8750000006003003 0  0.3124999955068334 0.8750000002920258 0  0.3749999952880538 0.8749999998989714 0  0.4374999950107392 0.8749999994604387 0  0.4999999947064775 0.8749999990132414 0  0.5624999944104382 0.8749999985871705 0  0.624999994155552 0.8749999982007906 0  0.6874999939667799 0.8749999978599802 0  0.7499999938576231 0.8749999975607058 0  0.8124999938301888 0.8749999972939428 0  0.8749999938773823 0.8749999970500869 0  0.9374999939857752 0.8749999968219201 0  0.9999999941383421 0.8749999966059608 0  1.062499994316307 0.8749999964028174 0  1.124999994500457 0.8749999962173985 0  1.187499994672408 0.8749999960587738 0  1.249999994815573 0.8749999959396755 0  1.31249999491612 0.8749999958759869 0  1.374999994964451 0.8749999958857217 0  1.437499994956778 0.8749999959869397 0  1.499999994896423 0.8749999961946081 0  1.562499994794388 0.8749999965166232 0  1.624999994668503 0.8749999969498969 0  1.6874999945414 0.874999997477318 0  1.749999994437354 0.8749999980652134 0  1.812499994376545 0.8749999986616817 0  1.874999994365367 0.8749999991997131 0  1.937499994386113 0.8749999996131759 0  1.999999994401268 0.8749999998684118 0  0.0624999954338911 0.9375000004834528 0  -4.582374856405801e-09 0.9375000003409883 0  0.1249999954603548 0.9375000005562247 0  0.1874999954669588 0.9375000005230559 0  0.249999995428259 0.9375000003776753 0  0.3124999953317614 0.9375000001341728 0  0.3749999951790401 0.9374999998176495 0  0.4374999949832657 0.9374999994571926 0  0.4999999947653868 0.9374999990808504 0  0.5624999945498811 0.9374999987118008 0  0.624999994360402 0.9374999983656617 0  0.6874999942158454 0.93749999804967
[...]
<PointData  Vectors="u"> 
<DataArray  type="Float64"  Name="u"  NumberOfComponents="3" format="ascii">-4.2392311069463627e-26 1.6811477400318733e-24 0.0000000000000000e+00  2.7069422423086133e-10 -6.6219328109627543e-09 0.0000000000000000e+00  3.0820565790699448e-06 4.7531615046080631e-07 0.0000000000000000e+00  0.0000000000000000e+00 0.0000000000000000e+00 0.0000000000000000e+00  1.4730068628678521e-09 -1.1028406072496609e-08 0.0000000000000000e+00  3.3869815730810415e-06 6.8554792375394872e-07 0.0000000000000000e+00  1.2357658988249621e-09 -2.0895138268343360e-08 0.0000000000000000e+00  2.9388412273332442e-06 6.8673928371166238e-07 0.0000000000000000e+00  4.4957164079604983e-09 -2.0761732502588129e-08 0.0000000000000000e+00  2.4121030682009432e-06 6.1274947105841898e-07 0.0000000000000000e+00  9.7405978908897191e-09 -1.4645323888818355e-08 0.0000000000000000e+00  1.9242732269574810e-06 5.1922668574143893e-07 0.0000000000000000e+00  1.3310945944851951e-08 -1.2650436826543209e-08 0.0000000000000000e+00  1.5013793818486036e-06 4.2661469820070639e-07 0.0000000000000000e+00  1.6220770244334098e-08 -1.2446418864481332e-08 0.0000000000000000e+00  1.1474287867873220e-06 3.4327855091192808e-07 0.0000000000000000e+00  2.0807054065529053e-08 -8.2951725005422926e-09 0.0000000000000000e+00  8.5820557329781275e-07 2.7239097545372231e-07 0.0000000000000000e+00  2.4043845653057387e-08 -6.0992821698828175e-09 0.0000000000000000e+00  6.2626654407493046e-07 2.1357975439677180e-07 0.0000000000000000e+00  2.8586251222430593e-08 -2.5228188188564664e-10 0.0000000000000000e+00  4.4356355817955418e-07 1.6508262602413291e-07 0.0000000000000000e+00  2.8571460648878456e-08 -2.2460479951142485e-09 0.0000000000000000e+00  3.0183903177075259e-07 1.2479663772191727e-07 0.0000000000000000e+00  2.7752372156120443e-08 -5.0920670881634268e-09 0.0000000000000000e+00  1.9448653234076001e-07 9.1028910513774417e-08 0.0000000000000000e+00  2.8903505980427070e-08 -4.1265344189683524e-09 0.0000000000000000e+00  1.1649075275599531e-07 6.3598561218780307e-08 0.0000000000000000e+00  3.0277383127947920e-08 -2.0442507065368313e-09 0.0000000000000000e+00  6.3701796174505038e-08 4.0960202935492366e-08 0.0000000000000000e+00  2.9427430469463840e-08 -3.7530746425832153e-09 0.0000000000000000e+00  3.2822957303275784e-08 2.0852415134445394e-08 0.0000000000000000e+00  3.0589721016983737e-08 -1.1833924847604594e-09 0.0000000000000000e+00  2.2439917293852602e-08 2.5512436828295738e-09 0.0000000000000000e+00  3.1428582730883398e-08 1.7489735533983720e-09 0.0000000000000000e+00  3.1988153808825112e-08 -1.5321768973208711e-08 0.0000000000000000e+00  3.0067267457423722e-08 8.7086567878195349e-10 0.0000000000000000e+00  6.1808103021855511e-08 -3.4974849032163504e-08 0.0000000000000000e+00  3.0575614851562514e-08 4.0127728566118263e-09 0.0000000000000000e+00  1.1411518249861443e-07 -5.7199023548374211e-08 0.0000000000000000e+00  3.0370535747072083e-08 7.0059926013694961e-09 0.0000000000000000e+00  1.9196040442433634e-07 -8.3630194836495359e-08 0.0000000000000000e+00  2.7638068611987903e-08 5.7063564933867814e-09 0.0000000000000000e+00  2.9938406592232301e-07 -1.1680235786911719e-07 0.0000000000000000e+00  2.6723751062251758e-08 8.1890753852589258e-09 0.0000000000000000e+00  4.4241132878862542e-07 -1.5785409747174607e-07 0.0000000000000000e+00  2.5234520360981477e-08 1.0423683960284648e-08 0.0000000000000000e+00  6.2792073514433981e-07 -2.0877050460185752e-07 0.0000000000000000e+00  2.1314129558015104e-08 8.2247941780636795e-09 0.0000000000000000e+00  8.6363285894565760e-07 -2.7227705164951370e-07 0.0000000000000000e+00  1.9355889370321275e-08 9.5964561852541343e-09 0.0000000000000000e+00  1.1588789394639576e-06 -3.4910872300223003e-07 0.0000000000000000e+00  1.6990118986330708e-08 1.0577810392843592e-08 0.0000000000000000e+00  1.5229605640215817e-06 -4.3929972587989754e-07 0.0000000000000000e+00  1.2396448162430560e-08 7.2209174976312599e-09 0.0000000000000000e+00  1.9639740627827612e-06 -5.4008723561583307e-07 0.0000000000000000e+00  1.0008327831501102e-08 7.6742301153042264e-09 0.0000000000000000e+00  2.4857454204389488e-06 -6.3880781878439614e-07 0.0000000000000000e+00  7.4946581980861246e-09 8.1084737863328614e-09 0.0000000000000000e+00  3.0688166410622614e-06 -7.0456946916966684e-07 0.0000000000000000e+00  3.0998213236565447e-09 5.0456027982178957e-09 0.0000000000000000e+00  3.5825227848975149e-06 -6.6700376022546748e-07 0.0000000000000000e+00  1.5556887910903603e-09 6.6518389676030144e-09 0.0000000000000000e+00  3.3718351552758276e-06 -3.9091297880738519e-07 0.0000000000000000e+00  1.3050169840400161e-25 -2.6884218440827582e-25 0.0000000000000000e+00  0.0000000000000000e+00 0.0000000000000000e+00 0.0000000000000000e+00  4.6260141387087630e-06 7.8649800374322849e-07 0.0000000000000000e+00  0.0000000000000000e+00 0.0000000000000000e+00 0.0000000000000000e+00  5.1154412166250796e-06 1.2294958893152397e-06 0.0000000000000000e+00  4.7663325208581738e-06 1.3125260287553544e-06 0.0000000000000000e+00  4.2219475925560729e-06 1.2257954500094480e-06 0.0000000000000000e+00  3.6616162719285150e-06 1.0731233605146993e-06 0.0000000000000000e+00  3.1443910932269041e-06 9.0463284706012084e-07 0.0000000000000000e+00  2.6907175734472466e-06 7.4334140640405304e-07 0.0000000000000000e+00  2.3057748043445435e-06 5.9908631534612236e-07 0.0000000000000000e+00  1.9875321840587171e-06 4.7481698276206196e-07 0.0000000000000000e+00  1.7304079922255900e-06 3.6980920860520302e-07 0.0000000000000000e+00  1.5274224226785431e-06 2.8191166241254735e-07 0.0000000000000000e+00  1.3715015763607479e-06 2.0832386389852070e-07 0.0000000000000000e+00  1.2565110922778645e-06 1.4644317493343918e-07 0.0000000000000000e+00  1.1775353504617112e-06 9.3490018330497193e-08 0.0000000000000000e+00  1.1308856351883205e-06 4.6349951337743438e-08 0.0000000000000000e+00  1.1143496315964779e-06 2.1413285119229115e-09 0.0000000000000000e+00  1.1272215727064218e-06 -4.1901323823245059e-08 0.0000000000000000e+00  1.1701647114502395e-06 -8.8839372244582952e-08 0.0000000000000000e+00  1.2453800684043277e-06 -1.4159711815796426e-07 0.0000000000000000e+00  1.3565259668406851e-06 -2.0311451575038359e-07 0.0000000000000000e+00  1.5084497304768215e-06 -2.7668415260626430e-07 0.0000000000000000e+00  1.7072095401176152e-06 -3.6535710852633227e-07 0.0000000000000000e+00  1.9597046383865945e-06 -4.7183567212252209e-07 0.0000000000000000e+00  2.2729783104734198e-06 -5.9832132638423534e-07 0.0000000000000000e+00  2.6536050046143477e-06 -7.4497648210187899e-07 0.0000000000000000e+00  3.1063717640523611e-06 -9.0801179232781300e-07 0.0000000000000000e+00  3.6320011688547974e-06 -1.0760982001693598e-06 0.0000000000000000e+00  4.2220447536593410e-06 -1.2223389697004496e-06 0.0000000000000000e+00  4.8366085471716861e-06 -1.2907273009507330e-06 0.0000000000000000e+00  5.2928549407256000e-06 -1.1753947634393204e-06 0.0000000000000000e+00  4.7379719620370449e-06 -7.1430749126397162e-07 0.0000000000000000e+00  0.0000000000000000e+00 0.0000000000000000e+00 0.0000000000000000e+00  5.5242174643489617e-06 9.4932990404256056e-07 0.0000000000000000e+00  0.0000000000000000e+00 0.0000000000000000e+00 0.0000000000000000e+00  6.3199417084582714e-06 1.5751886651717893e-06 0.0000000000000000e+00  6.1062433476916328e-06 1.7782647106265552e-06 0.0000000000000000e+00  5.6792764946974830e-06 1.7362952688627079e-06 0.0000000000000000e+00  5.2090528740326554e-06 1.5743381096394059e-06 0.0000000000000000e+00  4.7504487913728867e-06 1.3650070210872753e-06 0.0000000000000000e+00  4.3298884281966275e-06 1.1476874326273124e-06 0.0000000000000000e+00  3.9600485248525425e-06 9.4247383938999477e-07 0.0000000000000000e+00  3.6452941083746218e-06 7.5839203930039646e-07 0.0000000000000000e+00  3.3848999727658159e-06 5.9808285077756024e-07 0.0000000000000000e+00  3.1754080999527439e-06 4.6069645533848812e-07 0.0000000000000000e+00  3.0121526198002377e-06 3.4355491390811494e-07 0.0000000000000000e+00  2.8903568325130250e-06 2.4316037561262574e-07 0.0000000000000000e+00  2.8058528484836916e-06 1.5558677807298691e-07 0.0000000000000000e+00  2.7554556147571914e-06 7.6624399364580877e-08 0.0000000000000000e+00  2.7371543137003218e-06 1.9835205851190179e-09 0.0000000000000000e+00  2.7502458851445426e-06 -7.2606094767919652e-08 0.0000000000000000e+00  2.7953396824529376e-06 -1.5145013892681347e-07 0.0000000000000000e+00  2.8743318927978184e-06 -2.3884348513787619e-07 0.0000000000000000e+00  2.9902968663583172e-06 -3.3898983362200924e-07 0.0000000000000000e+00  3.1472552265586597e-06 -4.5593203552973536e-07 0.0000000000000000e+00  3.3497971332401217e-06 -5.9321625195973160e-07 0.0000000000000000e+00  3.6025480000746963e-06 -7.5330179174851443e-07 0.0000000000000000e+00  3.9093874228913443e-06 -9.3664952290538613e-07 0.0000000000000000e+00  4.2724299567803907e-06 -1.1399735224038695e-06 0.0000000000000000e+00  4.6907541349068859e-06 -1.3532722300344311e-06 0.0000000000000000e+00  5.1588093295374550e-06 -1.5549886644944939e-06 0.0000000000000000e+00  5.6624829592574634e-06 -1.7040712527082462e-06 0.0000000000000000e+00  6.1583234341985327e-06 -1.7284311736882987e-06 0.0000000000000000e+00  6.4552636829296848e-06 -1.5127432733235910e-06 0.0000000000000000e+00  5.6212485218545247e-06 -9.0927189323982025e-07 0.0000000000000000e+00  0.0000000000000000e+00 0.0000000000000000e+00 0.0000000000000000e+00  6.2744946190107343e-06 1.0302890615919686e-06 0.0000000000000000e+00  0.0000000000000000e+00 0.0000000000000000e+00 0.0000000000000000e+00  7.3008527458537870e-06 1.7607994498710554e-06 0.0000000000000000e+00  7.2282878370438659e-06 2.0678746515233607e-06 0.0000000000000000e+00  6.9486888894184858e-06 2.0913291938229621e-06 0.0000000000000000e+00  6.6223624610593613e-06 1.9528975640543105e-06 0.0000000000000000e+00  6.2911270303113225e-06 1.7348454301754766e-06 0.0000000000000000e+00  5.9756313013464076e-06 1.4881520437460886e-06 0.0000000000000000e+00  5.6888987634264029e-06 1.2424258844107562e-06 0.0000000000000000e+00  5.4381642108415538e-06 1.0134345864241100e-06 0.0000000000000000e+00  5.2261526939784936e-06 8.0818407634976774e-07 0.0000000000000000e+00  5.0526328111528770e-06 6.2827880017326805e-07 0.0000000000000000e+00  4.9156157940855981e-06 4.7210606484316516e-07 0.0000000000000000e+00  4.8123253790432659e-06 3.3622385211110078e-07 0.0000000000000000e+00  4.7399979865740635e-06 2.1616740079575032e-07 0.0000000000000000e+00  4.6963835127352381e-06 1.0690007886226345e-07 0.0000000000000000e+00  4.6800114770611322e-06 3.1036675088930704e-09 0.0000000000000000e+00  4.6903378341380939e-06 -1.0063958213220588e-07 0.0000000000000000e+00  4.7277993680293828e-06 -2.0973898263648815e-07 0.0000000000000000e+00  4.7937483669938185e-06 -3.2948768670127810e-07 0.0000000000000000e+00  4.8903285376638029e-06 -4.6488199332338272e-07 0.0000000000000000e+00  5.0201805402524911e-06 -6.2033507763662498e-07 0.0000000000000000e+00  5.1860190670683960e-06 -7.9914969672976099e-07 0.0000000000000000e+00  5.3900323569062212e-06 -1.0026405633824775e-06 0.0000000000000000e+00  5.6331828293722574e-06 -1.2287636096206715e-06 0.0000000000000000e+00  5.9144609809060027e-06 -1.4699492692529105e-06 0.0000000000000000e+00  6.2302427462530375e-06 -1.7097924857589024e-06 0.0000000000000000e+00  6.5740779132935953e-06 -1.9182393873823981e-06 0.0000000000000000e+00  6.9349063426444064e-06 -2.0450424859203540e-06 0.0000000000000000e+00  7.2779573211979424e-06 -2.0122208491457732e-06 0.0000000000000000e+00  7.4181960497884953e-06 -1.7094918994895387e-06 0.0000000000000000e+00  6.3576034456556793e-06 -1.0115851719569084e-06 0.0000000000000000e+00  0.0000000000000000e+00 0.0000000000000000e+00 0.0000000000000000e+00  6.9484701165142075e-06 1.0478906979194657e-06 0.0000000000000000e+00  0.0000000000000000e+00 0.0000000000000000e+00 0.0000000000000000e+00  8.1698619840046558e-06 1.8217609202200433e-06 0.0000000000000000e+00  8.2295919877350474e-06 2.1942342230760198e-06 0.0000000000000000e+00  8.0992642905477817e-06 2.2747955654902895e-06 0.0000000000000000e+00  7.9352789356269488e-06 2.1713349300868723e-06 0.0000000000000000e+00  7.7629845343465873e-06 1.9652025898418692e-06 0.0000000000000000e+00  7.5922350538068564e-06 1.7121678519762163e-06 0.0000000000000000e+00  7.4311686823541934e-06 1.4478791190203632e-06 0.0000000000000000e+00  7.2859525241411864e-06 1.1934155935310820e-06 0.0000000000000000e+00  7.1602451399510452e-06 9.5977473454780664e-07 0.0000000000000000e+00  7.0555829540497721e-06 7.5120831337846288e-07 0.0000000000000000e+00  6.9719097049722716e-06 5.6760244391987730e-07 0.0000000000000000e+00  6.9081894210201194e-06 4.0611743114196827e-07 0.0000000000000000e+00  6.8630576942314166e-06 2.6226966647814135e-07 0.0000000000000000e+00  6.8352744874139534e-06 1.3061900405468543e-07 0.0000000000000000e+00  6.8239805537239890e-06 5.2150779297874421e-09 0.0000000000000000e+00  6.8288438629019069e-06 -1.2010319090236776e-07 0.0000000000000000e+00  6.8501037628142432e-06 -2.5148293986661227e-07 0.0000000000000000e+00  6.8885401984566470e-06 -3.9482749299100298e-07 0.0000000000000000e+00  6.9453162626198173e-06 -5.5550226163512242e-07 0.0000000000000000e+00  7.0217675231170992e-06 -7.3787364768155381e-07 0.0000000000000000e+00  7.1189959468963153e-06 -9.4459633002927754e-07 0.0000000000000000e+00  7.2374204468215188e-06 -1.1755161569371913e-06 0.0000000000000000e+00  7.3764094069145379e-06 -1.4260538645073642e-06 0.0000000000000000e+00  7.5340638913579366e-06 -1.6849052235325749e-06 0.0000000000000000e+00  7.7074770704893372e-06 -1.9308787499075593e-06 0.0000000000000000e+00  7.8939637655005811e-06 -2.1288296249475522e-06 0.0000000000000000e+00  8.0909506795092418e-06 -2.2250155837245653e-06 0.0000000000000000e+00  8.2769116522305978e-06 -2.1430559054643306e-06 0.0000000000000000e+00  8.2738673581245020e-06 -1.7837411537719611e-06 0.0000000000000000e+00  7.0170680233116444e-06 -1.0427475705238418e-06 0.0000000000000000e+00  0.0000000000000000e+00 0.0000000000000000e+00 0.0000000000000000e+00  7.5583046412680033e-06 1.0092205379392429e-06 0.0000000000000000e+00  0.0000000000000000e+00 0.0000000000000000e+00 0.0000000000000000e+00  8.9575335430718966e-06 1.7739034954660786e-06 0.0000000000000000e+00  9.1406268315297605e-06 2.1702065236208955e-06 0.0000000000000000e+00  9.1560224171534099e-06 2.2863680499757229e-06 0.0000000000000000e+00  9.1579202058058065e-06 2.2147949115399723e-06 0.0000000000000000e+00  9.1568863994274449e-06 2.0301880646964690e-06 0.0000000000000000e+00  9.1504819105306989e-06 1.7875012727141917e-06 0.0000000000000000e+00  9.1391886271824281e-06 1.5243722028974813e-06 0.0000000000000000e+00  9.1253246511159862e-06 1.2646992410538987e-06 0.0000000000000000e+00  9.1112068018882510e-06 1.0221174236651717e-06 0.0000000000000000e+00  9.0984889622269038e-06 8.0292693845847497e-07 0.0000000000000000e+00  9.0879530753862642e-06 6.0838263906976194e-07 0.0000000000000000e+00  9.0796474867040326e-06 4.3640089512695730e-07 0.0000000000000000e+00  9.0732457560958504e-06 2.8277288913376549e-07 0.0000000000000000e+00  9.0683386494914061e-06 1.4200187901674781e-07 0.0000000000000000e+00  9.0646008842590521e-06 7.8736878636466724e-09 0.0000000000000000e+00  9.0618893871874765e-06 -1.2613628371395651e-07 0.0000000000000000e+00  9.0602905110344449e-06 -2.6653441227354718e-07 0.0000000000000000e+00  9.0600778367018002e-06 -4.1948490550418318e-07 0.0000000000000000e+00  9.0616543820050228e-06 -5.9039736211831775e-07 0.0000000000000000e+00  9.0653737695940501e-06 -7.8336213574872785e-07 0.0000000000000000e+00  9.0713533230069163e-06 -1.0003042984530509e-06 0.0000000000000000e+00  9.0792494215900532e-06 -1.2397841348974761e-06 0.0000000000000000e+00  9.0883047161019078e-06 -1.4953467591087072e-06 0.0000000000000000e+00  9.0978080227986183e-06 -1.7533276558794924e-06 0.0000000000000000e+00  9.1081904689320505e-06 -1.9901315798338850e-06 0.0000000000000000e+00  9.1232905824961948e-06 -2.1691515057437234e-06 0.0000000000000000e+00  9.1511366316819250e-06 -2.2378008875394227e-06 0.0000000000000000e+00  9.1837466271234437e-06 -2.1257487601201797e-06 0.0000000000000000e+00  9.0481521567898655e-06 -1.7466142223418511e-06 0.0000000000000000e+00  7.6146701185199778e-06 -1.0135068829786613e-06 0.0000000000000000e+00  0.0000000000000000e+00 0.0000000000000000e+00 0.0000000000000000e+00  8.1045435349000079e-06 9.1806730559308869e-07 0.0000000000000000e+00  0.0000000000000000e+00 0.0000000000000000e+00 0.0000000000000000e+00  9.6673721462255068e-06 1.6254080849875818e-06 0.0000000000000000e+00  9.9663269559454610e-06 2.0057768057020802e-06 0.0000000000000000e+00  1.0120702637874417e-05 2.1317760886409834e-06 0.0000000000000000e+00  1.0284251152170906e-05 2.0814640769179402e-06 0.0000000000000000e+00  1.0454885569330622e-05 1.9203512871325906e-06 0.0000000000000000e+00  1.0618290711782000e-05 1.6988429235015088e-06 0.0000000000000000e+00  1.0766406202176607e-05 1.4531054809161173e-06 0.0000000000000000e+00  1.0896201952582470e-05 1.2072164152635348e-06 0.0000000000000000e+00  1.1007092607370619e-05 9.7566748519835048e-07 0.0000000000000000e+00  1.1099503601680045e-05 7.6573095649109053e-07 0.0000000000000000e+00  1.1174021834949476e-05 5.7948382570583785e-07 0.0000000000000000e+00  1.1231040687784603e-05 4.1541620954151098e-07 0.0000000000000000e+00  1.1270784191393759e-05 2.6964937513202416e-07 0.0000000000000000e+00  1.1293372645262063e-05 1.3682055053593499e-07 0.0000000000000000e+00  1.1298852812146620e-05 1.0720007959743659e-08 0.0000000000000000e+00  1.1287227119952261e-05 -1.1523806241030211e-07 0.0000000000000000e+00  1.1258466283312806e-05 -2.4762466345126868e-07 0.0000000000000000e+00  1.1212520413534064e-05 -3.9260173551669704e-07 0.0000000000000000e+00  1.1149285582723811e-05 -5.5546024359642640e-07 0.0000000000000000e+00  1.1068638316376098e-05 -7.3998110879480541e-07 0.0000000000000000e+00  1.0970373610357939e-05 -9.4757244241449316e-07 0.0000000000000000e+00  1.0854336320622686e-05 -1.1760742897404132e-06 0.0000000000000000e+00  1.0720915546029920e-05 -1.4182036445904302e-06 0.0000000000000000e+00  1.0572033908256418e-05 -1.6596521154791782e-06 0.0000000000000000e+00  1.0412932562263346e-05 -1.8768894646388827e-06 0.0000000000000000e+00  1.0255105276719108e-05 -2.0349490190632190e-06 0.0000000000000000e+00  1.0117279472934889e-05 -2.0856849225854081e-06 0.0000000000000000e+00  1.0003632388615123e-05 -1.9672234529600677e-06 0.0000000000000000e+00  9.7444695899785951e-06 -1.6060568622385039e-06 0.0000000000000000e+00  8.1505821478504788e-06 -9.2958692837261051e-07 0.0000000000000000e+00  0.0000000000000000e+00 0.0000000000000000e+00 0.0000000000000000e+00  8.5824495367970185e-06 7.7766526974042093e-07 0.0000000000000000e+00  0.0000000000000000e+00 0.0000000000000000e+00 0.0000000000000000e+00  1.0293216748351068e-05 1.3830527385931622e-06 0.0000000000000000e+00  1.0699399656210577e-05 1.7106804555024446e-06 0.0000000000000000e+00  1.0982920914421385e-05 1.8206701727198948e-06 0.0000000000000000e+00  1.1298040042294559e-05 1.7779980449256091e-06 0.0000000000000000e+00  1.1632010919035271e-05 1.6379672377840227e-06 0.0000000000000000e+00  1.1959890202705680e-05 1.4441324377621669e-06 0.0000000000000000e+00  1.2265306504798918e-05 1.2285846717246326e-06 0.0000000000000000e+00  1.2539413492377169e-05 1.0132661235035136e-06 0.0000000000000000e+00  1.2777929331515718e-05 8.1172871345765367e-07 0.0000000000000000e+00  1.2979202062068507e-05 6.3097173245091929e-07 0.0000000000000000e+00  1.3142852155357826e-05 4.7311654506203882e-07 0.0000000000000000e+00  1.3268998152531603e-05 3.3681980261200829e-07 0.0000000000000000e+00  1.3357950584471934e-05 2.1839026124843228e-07 0.0000000000000000e+00  1.3410046917696828e-05 1.1263612084217876e-07 0.0000000000000000e+00  1.3425526882012184e-05 1.3492521082157438e-08 0.0000000000000000e+00  1.3404473498214933e-05 -8.5497222093347795e-08 0.0000000000000000e+00  1.3346808111810405e-05 -1.90777177