<?xml version="1.0"?>
<VTKFile type="UnstructuredGrid"  version="0.1"  >
<UnstructuredGrid>
<Piece  NumberOfPoints="825" NumberOfCells="1536">
<Points>
<DataArray  type="Float64"  NumberOfComponents="3"  format="ascii">4.627499273972598e-17 0.4999999999999999 0  0.06249999999999996 0.3748261625573329 0  0.1060778080080489 0.4058360359825037 0  0.04859486777831735 0.4534948111752856 0  0.1249999999999999 0.2948314843482039 0  0.1605489023002436 0.3470193902961607 0  0.1874999999999999 0.2368925853057787 0  0.2159152701057754 0.2978821245669105 0  0.2499999999999998 0.1924540929437259 0  0.27290864133168 0.2580432955227903 0  0.3124999999999998 0.15744000680124 0  0.3311387721271662 0.225671421099408 0  0.3749999999999997 0.1294854248712816 0  0.3902518533333434 0.1992756569462331 0  0.4374999999999997 0.1070324225517978 0  0.4500069714113894 0.1777293174866859 0  0.4999999999999997 0.08897398559785674 0  0.5102409360182399 0.1601705291605962 0  0.5624999999999997 0.07448805019056692 0  0.5708390402494938 0.1459286984272735 0  0.6249999999999997 0.06294909798205478 0  0.6317171827716518 0.1344767968013745 0  0.6874999999999997 0.05387613624106186 0  0.692811187134561 0.1253998993688298 0  0.7499999999999997 0.04689981009930388 0  0.7540702248139427 0.1183737074342757 0  0.8124999999999997 0.04174058128629143 0  0.8154525761961575 0.1131494853108381 0  0.8749999999999997 0.03819387840247646 0  0.8769227508652394 0.1095433817997796 0  0.9374999999999997 0.03612001300585382 0  0.9384494121684864 0.1074289593367152 0  0.9999999999999997 0.03543763085938179 0  1.000003776946946 0.1067322398414972 0  1.0625 0.03612001300585399 0  1.061558281922912 0.1074288689155864 0  1.125 0.03819387840247623 0  1.123085370468599 0.1095431914560467 0  1.1875 0.04174058128629166 0  1.184556280058265 0.1131491743984694 0  1.25 0.04689981009930344 0  1.245939710882776 0.1183732403662476 0  1.3125 0.05387613624106186 0  1.307200229952733 0.1253992184068676 0  1.375 0.06294909798205467 0  1.368296203468887 0.1344758087869261 0  1.4375 0.07448805019056759 0  1.429176930947708 0.1459272499561417 0  1.5 0.08897398559785702 0  1.489778431542076 0.1601683584229405 0  1.5625 0.1070324225517978 0  1.550016916361094 0.1777259563881006 0  1.625 0.1294854248712818 0  1.609778211706746 0.1992702215163968 0  1.6875 0.15744000680124 0  1.668900110534763 0.2256621407521635 0  1.75 0.1924540929437261 0  1.727143475272989 0.2580264551722502 0  1.8125 0.2368925853057792 0  1.784154530117946 0.2978500994459914 0  1.875 0.2948314843482039 0  1.839496560118052 0.3469600372640964 0  1.9375 0.3748261625573334 0  1.893479284500546 0.4058786620231737 0  2 0.5 0  1.952431582145234 0.453572249932613 0  0.1224742131290055 0.4317741249551053 0  0.0615202245842021 0.4544044700818965 0  0.1792423296316754 0.3934723868388122 0  0.2343110835822981 0.3549571745055961 0  0.2896168042588901 0.3208776862140421 0  0.3457851967564443 0.2918519086421349 0  0.4028638335875663 0.2674792451482726 0  0.4607420403898247 0.2471695497479314 0  0.5192853599923108 0.2303565205143681 0  0.5783708454893387 0.2165473041881099 0  0.6378933741380399 0.2053284227056998 0  0.6977641725086813 0.1963603885673064 0  0.7579076990872546 0.1893701456762379 0  0.8182585746204604 0.1841439846504965 0  0.8787589315091766 0.1805216645016171 0  0.9393561759684397 0.1783918918120246 0  1.000001063272859 0.177689142700581 0  1.060645974904197 0.1783917804225478 0  1.121243293563734 0.1805214318727483 0  1.181743778295784 0.1841436097285899 0  1.242094841970964 0.1893695932474873 0  1.302238627088767 0.1963596041860052 0  1.362109768668478 0.2053273247667934 0  1.42163274433507 0.216545772522149 0  1.480718804456454 0.230354382567278 0  1.539262849397331 0.247166573044294 0  1.597141918634876 0.2674751740739126 0  1.654221271890337 0.2918466922751044 0  1.710388226769957 0.3208724179275418 0  1.765679170464903 0.3549570315810708 0  1.820687820402279 0.3934871469954026 0  1.87749758621275 0.4317675267336098 0  1.938806041208044 0.4544531186605733 0  0.1283470883604143 0.4630384823457444 0  0.06650293507379625 0.4749737390366521 0  0.1874364632648531 0.4383426718598164 0  0.2442107838864751 0.409542459279849 0  0.3000490329771504 0.3815690301352344 0  0.355907826769903 0.3563400171779051 0  0.4122221195406479 0.3343557911410771 0  0.4691292265520887 0.3155599997808472 0  0.5266305031263842 0.2997030715245441 0  0.5846722235254984 0.2864876255517037 0  0.643181697348992 0.2756259580206974 0  0.7020825185278259 0.2668622261016441 0  0.7613005252244665 0.2599801833919316 0  0.8207656642638248 0.2548049641957128 0  0.8804120559793633 0.2512025371631914 0  0.9401772767896808 0.2490784437353056 0  1.000001310785547 0.2483765705178806 0  1.059825368899152 0.249078308899045 0  1.119590663015431 0.2512022597636046 0  1.179237180122959 0.2548045284327756 0  1.238702501584447 0.2599795648967007 0  1.297920754811838 0.2668613918773146 0  1.356821895675111 0.2756248683357206 0  1.415331772068698 0.2864862414819197 0  1.473373982585291 0.2997013767653887 0  1.530875812163514 0.3155580556969322 0  1.58778338104687 0.3343538620000241 0  1.644097381768636 0.3563388082238399 0  1.699952867878733 0.3815698691677383 0  1.755780285634377 0.4095458329879195 0  1.812542636461471 0.4383430742621496 0  1.871678821550154 0.4630377533081435 0  1.933626294906227 0.4749938784452215 0  0.1297306737483462 0.5000686078982105 0  0.06759422055333604 0.5062619679737477 0  0.1901116751014 0.4839439391531649 0  0.2484886301401498 0.462834280053658 0  0.3055199062940571 0.4405422031459173 0  0.3619716612934746 0.4192230860230457 0  0.4183786053394203 0.3998668557374199 0  0.4750346244517961 0.3828223268325863 0  0.5320703708851806 0.3681243460550335 0  0.5895216669224681 0.3556676579085981 0  0.6473732335078758 0.3452944253558605 0  0.7055836743223285 0.3368375798350176 0  0.7640990387647324 0.330142143687588 0  0.8228599248992469 0.3250755652439706 0  0.8818050211774504 0.3215325559384179 0  0.9408727020839887 0.3194372043615263 0  1.000001572171477 0.3187437960357318 0  1.059130466781058 0.3194370741209434 0  1.118198221997609 0.3215322918581779 0  1.177143444591327 0.3250751607539276 0  1.235904512648132 0.3301415908856088 0  1.294420119225041 0.3368368730441562 0  1.352630866656182 0.345293568307572 0  1.410482803887638 0.3556666773585456 0  1.467934515591583 0.3681233154248638 0  1.524970643647344 0.382821400778706 0  1.581626760129958 0.3998662979116268 0  1.638032875817705 0.4192231968786815 0  1.694481782843708 0.4405428599608365 0  1.751508418373519 0.4628339596613418 0  1.809886853760768 0.4839417167718603 0  1.870292723115218 0.5000707336427829 0  1.932470971523887 0.5062737462596891 0  0.1287165103755658 0.5418565022563027 0  0.06644293055328905 0.5446385913810812 0  0.1898189265597054 0.531283605797469 0  0.2493493406351112 0.5159118376592149 0  0.3075385998364289 0.4984535241279696 0  0.3648715210985191 0.4808168281941311 0  0.4218057975689477 0.4641304868409785 0  0.4786707915005252 0.4489729213483267 0  0.5356676718573744 0.4355879316978298 0  0.5929010970286663 0.4240332343592034 0  0.6504112183422365 0.414271234180446 0  0.7081976131915163 0.4062217411986864 0  0.7662352438310236 0.3997919359685643 0  0.8244845314255191 0.3948932337155077 0  0.8828975271367744 0.3914506954531827 0  0.9414216268837712 0.3894082039571789 0  1.000001803038376 0.3887312161906754 0  1.058582003063321 0.3894080872918289 0  1.11710617486389 0.39145046213805 0  1.175519292028469 0.3948928847498461 0  1.233768752024226 0.3997914754970159 0  1.291806606693454 0.4062211802729771 0  1.349593273940363 0.414270596500889 0  1.407103701194479 0.4240325636337164 0  1.464337421604899 0.4355872974631386 0  1.521334475943019 0.4489724122637429 0  1.578199290422978 0.464130163106509 0  1.635132678810232 0.4808165852171731 0  1.692463877896906 0.4984529010864445 0  1.750651930718047 0.5159103554238402 0  1.810185928359542 0.5312827219697391 0  1.871301481603242 0.541858929889063 0  1.933595629121441 0.5446467817906692 0  0.1263068936282691 0.587448142837061 0  0.06395812812043986 0.5880982792563794 0  0.1878373613932063 0.5805923865669584 0  0.2481567754122281 0.5694380149028271 0  0.307285408537376 0.5558985561114695 0  0.3654897431084083 0.541519218514958 0  0.4231021371918653 0.52737168889338 0  0.4804150324607118 0.5141185679185644 0  0.5376441644718666 0.5021276851210841 0  0.5949296085754738 0.4915755557898435 0  0.6523505467203582 0.4825235111734883 0  0.7099416687260016 0.4749686965151161 0  0.7677068608647355 0.4688766592224892 0  0.8256294104075088 0.4642016517181467 0  0.8836792258091395 0.4608990686357947 0  0.9418178516968665 0.458932919098438 0  1.000001997258551 0.4582801402967618 0  1.058186164720929 0.4589328176739272 0  1.116324856309757 0.4608988677978731 0  1.174374780973939 0.4642013561997426 0  1.232297482013197 0.4688762778622169 0  1.290062863504958 0.4749682441016279 0  1.347654201180996 0.4825230100099259 0  1.405075354620743 0.4915750350021668 0  1.462360958252012 0.5021271733813486 0  1.519590093745053 0.5141180721850811 0  1.576902694717225 0.5273711531787451 0  1.634514407080675 0.5415184851420098 0  1.692717941184565 0.5558974585413765 0  1.751846781613263 0.5694368540701251 0  1.812169318114866 0.5805924904791117 0  1.873707019351204 0.5874502946886633 0  1.936067160965767 0.5881042779614785 0  0.1230750827851257 0.6360963875983356 0  0.06068160921680874 0.6353824246757961 0  0.1848739246744377 0.6317918153576384 0  0.2457342799076113 0.6237398590457457 0  0.305581886073258 0.613304358443729 0  0.3645416785555401 0.6016948655273757 0  0.4228322017793038 0.5898478784709811 0  0.4806832460393208 0.578418643118358 0  0.5382910387713792 0.5678288990684522 0  0.5958027925478814 0.5583286692683576 0  0.6533176482176892 0.5500515130897941 0  0.7108943741682792 0.5430570766542877 0  0.7685605226524904 0.5373614217879634 0  0.8263207508271044 0.5329576908390601 0  0.8841636304004951 0.5298297552870599 0  0.9420669965760898 0.5279609545551283
[...]
<PointData  Vectors="u"> 
<DataArray  type="Float64"  Name="u"  NumberOfComponents="3" format="ascii">3.7812936644378015e-31 1.6780043458338901e-15 0.0000000000000000e+00  -8.3878506311980838e-16 -2.5034766739751633e+00 0.0000000000000000e+00  -9.1512731243651219e-17 -2.7035374098526443e-01 0.0000000000000000e+00  0.0000000000000000e+00 0.0000000000000000e+00 0.0000000000000000e+00  -2.2099377476115936e-15 -4.1033701903054460e+00 0.0000000000000000e+00  -3.3346048891654901e-16 -7.2020574324881004e-01 0.0000000000000000e+00  -3.2089942666788760e-15 -5.2621481364952727e+00 0.0000000000000000e+00  -5.9250787353654146e-16 -1.0253701333926319e+00 0.0000000000000000e+00  -3.9881608560064630e-15 -6.1509179571535126e+00 0.0000000000000000e+00  -7.8801393897131467e-16 -1.2497760488189107e+00 0.0000000000000000e+00  -4.6119660036450555e-15 -6.8511996590580306e+00 0.0000000000000000e+00  -9.4170960629244480e-16 -1.4237985583134636e+00 0.0000000000000000e+00  -5.1164433099284505e-15 -7.4102912809349517e+00 0.0000000000000000e+00  -1.0652803044189645e-15 -1.5617295364032240e+00 0.0000000000000000e+00  -5.5257026992084682e-15 -7.8593513138933826e+00 0.0000000000000000e+00  -1.1653579826420104e-15 -1.6721501370519412e+00 0.0000000000000000e+00  -5.8574922728757917e-15 -8.2205200421697651e+00 0.0000000000000000e+00  -1.2465234318230999e-15 -1.7608935856800578e+00 0.0000000000000000e+00  -6.1254852213072294e-15 -8.5102387416501646e+00 0.0000000000000000e+00  -1.3122165971048920e-15 -1.8321847094351469e+00 0.0000000000000000e+00  -6.3404229045401162e-15 -8.7410177789178878e+00 0.0000000000000000e+00  -1.3651111088929538e-15 -1.8891943601284329e+00 0.0000000000000000e+00  -6.5107856210715045e-15 -8.9224770083103575e+00 0.0000000000000000e+00  -1.4073120446704699e-15 -1.9343464201863925e+00 0.0000000000000000e+00  -6.6432331995852058e-15 -9.0620035269723225e+00 0.0000000000000000e+00  -1.4404777766916259e-15 -1.9695036580033964e+00 0.0000000000000000e+00  -6.7429144421981985e-15 -9.1651881001463558e+00 0.0000000000000000e+00  -1.4659019022220631e-15 -1.9960875404513263e+00 0.0000000000000000e+00  -6.8136908699646175e-15 -9.2361221557010378e+00 0.0000000000000000e+00  -1.4845714326034176e-15 -2.0151585583745559e+00 0.0000000000000000e+00  -6.8582978802465260e-15 -9.2775994623929190e+00 0.0000000000000000e+00  -1.4972090313869978e-15 -2.0274708463122368e+00 0.0000000000000000e+00  -6.8784560274928423e-15 -9.2912471049141594e+00 0.0000000000000000e+00  -1.5043024757397770e-15 -2.0335086190204326e+00 0.0000000000000000e+00  -6.8749396416472352e-15 -9.2775994623929190e+00 0.0000000000000000e+00  -1.5061249122814952e-15 -2.0335086208134365e+00 0.0000000000000000e+00  -6.8476065943602968e-15 -9.2361221557010449e+00 0.0000000000000000e+00  -1.5027457442046917e-15 -2.0274708517624029e+00 0.0000000000000000e+00  -6.7953904703958276e-15 -9.1651881001463504e+00 0.0000000000000000e+00  -1.4940330867161487e-15 -2.0151585676988901e+00 0.0000000000000000e+00  -6.7162540366500338e-15 -9.0620035269723331e+00 0.0000000000000000e+00  -1.4796475906798235e-15 -1.9960875540236371e+00 0.0000000000000000e+00  -6.6071002116305033e-15 -8.9224770083103575e+00 0.0000000000000000e+00  -1.4590272792019868e-15 -1.9695036763731641e+00 0.0000000000000000e+00  -6.4636330914915300e-15 -8.7410177789178896e+00 0.0000000000000000e+00  -1.4313623391023171e-15 -1.9343464440994409e+00 0.0000000000000000e+00  -6.2801559021378744e-15 -8.5102387416501557e+00 0.0000000000000000e+00  -1.3955577469412938e-15 -1.8891943904707937e+00 0.0000000000000000e+00  -6.0492828348836847e-15 -8.2205200421697597e+00 0.0000000000000000e+00  -1.3501797765421844e-15 -1.8321847463337670e+00 0.0000000000000000e+00  -5.7615226995843201e-15 -7.8593513138933826e+00 0.0000000000000000e+00  -1.2933791532598299e-15 -1.7608936198345679e+00 0.0000000000000000e+00  -5.4046521980694637e-15 -7.4102912809349464e+00 0.0000000000000000e+00  -1.2227770919223636e-15 -1.6721500683178763e+00 0.0000000000000000e+00  -4.9627027072660726e-15 -6.8511996590580306e+00 0.0000000000000000e+00  -1.1352855871231623e-15 -1.5617283552022012e+00 0.0000000000000000e+00  -4.4141367918230269e-15 -6.1509179571535082e+00 0.0000000000000000e+00  -1.0267930637983445e-15 -1.4237862087890663e+00 0.0000000000000000e+00  -3.7280439685148130e-15 -5.2621481364952647e+00 0.0000000000000000e+00  -8.9149981672149528e-16 -1.2496541307221598e+00 0.0000000000000000e+00  -2.8546037678256481e-15 -4.1033701903054443e+00 0.0000000000000000e+00  -7.1970695396741270e-16 -1.0239736367288850e+00 0.0000000000000000e+00  -1.6959625585192810e-15 -2.5034766739751539e+00 0.0000000000000000e+00  -4.8247817718704373e-16 -7.0012901638816272e-01 0.0000000000000000e+00  6.4789930937180941e-31 6.6262984162417340e-16 0.0000000000000000e+00  0.0000000000000000e+00 0.0000000000000000e+00 0.0000000000000000e+00  -7.6461408399291104e-18 -2.0075683915829850e-02 0.0000000000000000e+00  0.0000000000000000e+00 0.0000000000000000e+00 0.0000000000000000e+00  -3.9667805056071216e-17 -9.9878571969092195e-02 0.0000000000000000e+00  -8.9620957380891583e-17 -1.6657736710707613e-01 0.0000000000000000e+00  -1.3156301836783132e-16 -2.1727293321020891e-01 0.0000000000000000e+00  -1.6497576897495675e-16 -2.5555845223578444e-01 0.0000000000000000e+00  -1.9154882972253961e-16 -2.8545079826623854e-01 0.0000000000000000e+00  -2.1295893834413805e-16 -3.0922808612665020e-01 0.0000000000000000e+00  -2.3030259712156502e-16 -3.2829082706899843e-01 0.0000000000000000e+00  -2.4435481093896737e-16 -3.4360631982830830e-01 0.0000000000000000e+00  -2.5570147459229418e-16 -3.5588395490928726e-01 0.0000000000000000e+00  -2.6479943114179746e-16 -3.6565981131627040e-01 0.0000000000000000e+00  -2.7200718249509848e-16 -3.7334440466083740e-01 0.0000000000000000e+00  -2.7760872839623490e-16 -3.7925215681490232e-01 0.0000000000000000e+00  -2.8182557361242951e-16 -3.8362063935832313e-01 0.0000000000000000e+00  -2.8482179325304981e-16 -3.8662352821003199e-01 0.0000000000000000e+00  -2.8671339631252044e-16 -3.8837933670527808e-01 0.0000000000000000e+00  -2.8756913954958573e-16 -3.8895706005318631e-01 0.0000000000000000e+00  -2.8742238303694193e-16 -3.8837935432712578e-01 0.0000000000000000e+00  -2.8627102318430363e-16 -3.8662356414290666e-01 0.0000000000000000e+00  -2.8407609493160289e-16 -3.8362069501104346e-01 0.0000000000000000e+00  -2.8075608408214960e-16 -3.7925223437872602e-01 0.0000000000000000e+00  -2.7618003266407102e-16 -3.7334450720391854e-01 0.0000000000000000e+00  -2.7016076328492177e-16 -3.6565994286293524e-01 0.0000000000000000e+00  -2.6244802098032580e-16 -3.5588412002557412e-01 0.0000000000000000e+00  -2.5271929685701340e-16 -3.4360651825757871e-01 0.0000000000000000e+00  -2.4056441580884266e-16 -3.2829100092381491e-01 0.0000000000000000e+00  -2.2545808321693382e-16 -3.0922762826904959e-01 0.0000000000000000e+00  -2.0670826208036769e-16 -2.8544394319792871e-01 0.0000000000000000e+00  -1.8332577314415621e-16 -2.5548270363394732e-01 0.0000000000000000e+00  -1.5336716424693542e-16 -2.1635037399408963e-01 0.0000000000000000e+00  -1.0890942023389320e-16 -1.5590975765795265e-01 0.0000000000000000e+00  0.0000000000000000e+00 0.0000000000000000e+00 0.0000000000000000e+00  2.4987753746503733e-18 -1.3972971903233673e-03 0.0000000000000000e+00  0.0000000000000000e+00 0.0000000000000000e+00 0.0000000000000000e+00  -5.7469746821027503e-19 -1.0668961468854099e-02 0.0000000000000000e+00  -8.3918143901358734e-18 -2.5095277633254941e-02 0.0000000000000000e+00  -1.6977404784514822e-17 -3.5564448715827465e-02 0.0000000000000000e+00  -2.3802762642113386e-17 -4.3672346690440941e-02 0.0000000000000000e+00  -2.9308470389540125e-17 -4.9968583500355615e-02 0.0000000000000000e+00  -3.3742381346553743e-17 -5.4926533970010218e-02 0.0000000000000000e+00  -3.7320906354003223e-17 -5.8881454496133467e-02 0.0000000000000000e+00  -4.0205309764886156e-17 -6.2054486973042638e-02 0.0000000000000000e+00  -4.2536461801718383e-17 -6.4601092939664193e-02 0.0000000000000000e+00  -4.4418807099769566e-17 -6.6636382819299678e-02 0.0000000000000000e+00  -4.5921835449561592e-17 -6.8247766128062562e-02 0.0000000000000000e+00  -4.7094052054383200e-17 -6.9502163322163635e-02 0.0000000000000000e+00  -4.7996933474250467e-17 -7.0450523145453067e-02 0.0000000000000000e+00  -4.8698066363350134e-17 -7.1130801153888132e-02 0.0000000000000000e+00  -4.9218748383198124e-17 -7.1569963730660421e-02 0.0000000000000000e+00  -4.9560269665256513e-17 -7.1785315904550728e-02 0.0000000000000000e+00  -4.9696089298171580e-17 -7.1785316015610126e-02 0.0000000000000000e+00  -4.9660749829207956e-17 -7.1569964067992958e-02 0.0000000000000000e+00  -4.9509555548086354e-17 -7.1130801730044615e-02 0.0000000000000000e+00  -4.9288795001367198e-17 -7.0450523981340496e-02 0.0000000000000000e+00  -4.8994606750924294e-17 -6.9502164443922390e-02 0.0000000000000000e+00  -4.8556357571717228e-17 -6.8247767535727422e-02 0.0000000000000000e+00  -4.7851295348177176e-17 -6.6636384202654220e-02 0.0000000000000000e+00  -4.6739236256368263e-17 -6.4601091068685237e-02 0.0000000000000000e+00  -4.5095056627926963e-17 -6.2054452172114603e-02 0.0000000000000000e+00  -4.2819942493545524e-17 -5.8881115062943565e-02 0.0000000000000000e+00  -3.9824160913743524e-17 -5.4923149555953781e-02 0.0000000000000000e+00  -3.5975316095389179e-17 -4.9932165514568264e-02 0.0000000000000000e+00  -3.0899316442822498e-17 -4.3296003993284968e-02 0.0000000000000000e+00  -2.2731890110753014e-17 -3.2214748132378963e-02 0.0000000000000000e+00  0.0000000000000000e+00 0.0000000000000000e+00 0.0000000000000000e+00  3.3056472830647851e-17 -1.2210852791536979e-04 0.0000000000000000e+00  0.0000000000000000e+00 0.0000000000000000e+00 0.0000000000000000e+00  3.6489646855679346e-17 -9.2346156222961940e-04 0.0000000000000000e+00  3.6522713410185301e-17 -3.3492094533769520e-03 0.0000000000000000e+00  3.5260469871764534e-17 -5.5709772966936822e-03 0.0000000000000000e+00  3.3955360672424245e-17 -7.2656231915697702e-03 0.0000000000000000e+00  3.2853911341045942e-17 -8.5691490090430977e-03 0.0000000000000000e+00  3.1942076572399388e-17 -9.5942849345558578e-03 0.0000000000000000e+00  3.1157641947940923e-17 -1.0408065319869583e-02 0.0000000000000000e+00  3.0493402949256299e-17 -1.1058896848114249e-02 0.0000000000000000e+00  3.0066715351387780e-17 -1.1581080288827665e-02 0.0000000000000000e+00  2.9814395409929944e-17 -1.1999380539262042e-02 0.0000000000000000e+00  2.9522046553853621e-17 -1.2332301366740999e-02 0.0000000000000000e+00  2.9206800916380050e-17 -1.2593933274619844e-02 0.0000000000000000e+00  2.8796397564668779e-17 -1.2795036173937627e-02 0.0000000000000000e+00  2.8148431478992489e-17 -1.2943725740180483e-02 0.0000000000000000e+00  2.7098794011115767e-17 -1.3045928513452976e-02 0.0000000000000000e+00  2.5767638421662989e-17 -1.3105686012459105e-02 0.0000000000000000e+00  2.4514519111405228e-17 -1.3125350250620327e-02 0.0000000000000000e+00  2.3413023869484378e-17 -1.3105693516424557e-02 0.0000000000000000e+00  2.1876747592235941e-17 -1.3045943816367868e-02 0.0000000000000000e+00  1.9238747376498947e-17 -1.2943749445459849e-02 0.0000000000000000e+00  1.5182173293466634e-17 -1.2795069220512628e-02 0.0000000000000000e+00  1.0010754844764587e-17 -1.2593976970304737e-02 0.0000000000000000e+00  4.5399514611859160e-18 -1.2332357339902750e-02 0.0000000000000000e+00  -2.8869526129290156e-19 -1.1999449805931128e-02 0.0000000000000000e+00  -3.8170480134642520e-18 -1.1581154227762833e-02 0.0000000000000000e+00  -5.8716913141642460e-18 -1.1058868857088237e-02 0.0000000000000000e+00  -6.6824052739856880e-18 -1.0406835935721538e-02 0.0000000000000000e+00  -6.6308897631453615e-18 -9.5814107278551046e-03 0.0000000000000000e+00  -5.9893700824649551e-18 -8.4583075035062939e-03 0.0000000000000000e+00  -4.5644815889553727e-18 -6.4389815720122465e-03 0.0000000000000000e+00  0.0000000000000000e+00 0.0000000000000000e+00 0.0000000000000000e+00  3.2724765682302138e-16 -1.2615152191430145e-05 0.0000000000000000e+00  0.0000000000000000e+00 0.0000000000000000e+00 0.0000000000000000e+00  3.6330330904361142e-16 -7.6527626794023416e-05 0.0000000000000000e+00  3.7308432989975609e-16 -3.7630739431017814e-04 0.0000000000000000e+00  3.7562019080668270e-16 -8.2674488831039738e-04 0.0000000000000000e+00  3.7608007575018752e-16 -1.1735246615578092e-03 0.0000000000000000e+00  3.7603426458354385e-16 -1.4455843143993132e-03 0.0000000000000000e+00  3.7588741876006005e-16 -1.6569578539920753e-03 0.0000000000000000e+00  3.7568829327068043e-16 -1.8238998260892128e-03 0.0000000000000000e+00  3.7515568947642015e-16 -1.9570687739717822e-03 0.0000000000000000e+00  3.7397574773026785e-16 -2.0637734647073942e-03 0.0000000000000000e+00  3.7329735708762992e-16 -2.1493282418742696e-03 0.0000000000000000e+00  3.7409035216105247e-16 -2.2176660063791863e-03 0.0000000000000000e+00  3.7379598074957663e-16 -2.2717523811763216e-03 0.0000000000000000e+00  3.7228143694195525e-16 -2.3138477068776844e-03 0.0000000000000000e+00  3.6674252428387666e-16 -2.3456687113098617e-03 0.0000000000000000e+00  3.5619484832467725e-16 -2.3684925536030907e-03 0.0000000000000000e+00  3.4201147612941082e-16 -2.3832258689736496e-03 0.0000000000000000e+00  3.2588301872925900e-16 -2.3904501784778958e-03 0.0000000000000000e+00  3.1245359170740889e-16 -2.3904496334059152e-03 0.0000000000000000e+00  2.9761514733193740e-16 -2.3832242118394364e-03 0.0000000000000000e+00  2.7406592528046079e-16 -2.3684897174155355e-03 0.0000000000000000e+00  2.3675976418386997e-16 -2.3456645797272409e-03 0.0000000000000000e+00  1.8704653355722375e-16 -2.3138421024299504e-03 0.0000000000000000e+00  1.3237036390510820e-16 -2.2717450121696433e-03 0.0000000000000000e+00  8.2381376951482868e-17 -2.2176560875975283e-03 0.0000000000000000e+00  4.4221479373171795e-17 -2.1493111259044545e-03 0.0000000000000000e+00  1.9929119496034090e-17 -2.0637089123245562e-03 0.0000000000000000e+00  7.0972624498692721e-18 -1.9566010596199874e-03 0.0000000000000000e+00  1.5163442422804307e-18 -1.8201851451377939e-03 0.0000000000000000e+00  -4.1514561257055445e-19 -1.6297561718971504e-03 0.0000000000000000e+00  -7.6413515122269275e-19 -1.2622824764433331e-03 0.0000000000000000e+00  0.0000000000000000e+00 0.0000000000000000e+00 0.0000000000000000e+00  3.0434563514340314e-15 -1.2171728851099641e-06 0.0000000000000000e+00  0.0000000000000000e+00 0.0000000000000000e+00 0.0000000000000000e+00  3.3748871979332515e-15 -7.2907459743579888e-06 0.0000000000000000e+00  3.4615749384581811e-15 -3.6320169733405395e-05 0.0000000000000000e+00  3.4845605637010903e-15 -1.1062022849876904e-04 0.0000000000000000e+00  3.4903118142226361e-15 -1.8265578178129830e-04 0.0000000000000000e+00  3.4916476214436461e-15 -2.3845195229696948e-04 0.0000000000000000e+00  3.4918764912766965e-15 -2.8200781835573065e-04 0.0000000000000000e+00  3.4918086595177355e-15 -3.1627159992585505e-04 0.0000000000000000e+00  3.4915671098571126e-15 -3.4345257173826427e-04 0.0000000000000000e+00  3.4893291347452161e-15 -3.6518569367519283e-04 0.0000000000000000e+00  3.4789837042946385e-15 -3.8261141292460677e-04 0.0000000000000000e+00  3.4632833499862789e-15 -3.9656136012988861e-04 0.0000000000000000e+00  3.4617799472596700e-15 -4.0765920689407880e-04 0.0000000000000000e+00  3.4539528276433857e-15 -4.1637846758439158e-04 0.0000000000000000e+00  3.4307343553969521e-15 -4.2307959761032362e-04 0.0000000000000000e+00  3.3473775880773058e-15 -4.2803395120943232e-04 0.0000000000000000e+00  3.2009472628879000e-15 -4.3143947636487662e-04 0.0000000000000000e+00  3.0361635788209410e-15 -4.3343108644347159e-04 0.0000000000000000e+00  2.8713096101080911e-15 -4.3408728650318006e-04 0.0000000000000000e+00  2.7399453881669384e-15 -4.3343388238725099e-04 0.0000000000000000e+00  2.5507279939614160e-15 -4.3144517793010270e-04 0.0000000000000000e+00  2.2403861476430978e-15 -4.2804278255358097e-04 0.0000000000000000e+00  1.7990780512183886e-15 -4.2309190621106908e-04 0.0000000000000000e+00  1.2900239136820141e-15 -4.1639472746670216e-04 0.0000000000000000e+00  8.1068279742425849e-16 -4.0767992079643220e-04 0.0000000000000000e+00  4.3958032431989558e-16 -3.9658598406134193e-04 0.0000000000000000e+00  2.0301989399934465e-16 -3.8262901843580312e-04 0.0000000000000000e+00  7.9068580584158692e-17 -3.6510384599346146e-04 0.0000000000000000e+00  2.5610031476122448e-17 -3.4261017715523918e-04 0.0000000000000000e+00  6.5732721204096803e-18 -3.1032133937806055e-04 0.0000000000000000e+00  1.0578345163652553e-18 -2.4360829652521869e-04 0.0000000000000000e+00  0.0000000000000000e+00 0.0000000000000000e+00 0.0000000000000000e+00  2.6636771952020225e-14 -1.3041931995183071e-07 0.0000000000000000e+00  0.0000000000000000e+00 0.0000000000000000e+00 0.0000000000000000e+00  2.9542549705787277e-14 -7.7033069902533966e-07 0.0000000000000000e+00  3.0269567670827765e-14 -3.3799326455190891e-06 0.0000000000000000e+00  3.0452134673717436e-14 -1.2845312459505941e-05 0.0000000000000000e+00  3.0496059716612819e-14 -2.6771978303266676e-05 0.0000000000000000e+00  3.0506223212637090e-14 -3.8065438319809155e-05 0.0000000000000000e+00  3.0508383611217503e-14 -4.7005222645513735e-05 0.0000000000000000e+00  3.0508352358259130e-14 -5.3989241160242859e-05 0.0000000000000000e+00  3.0506949931983511e-14 -5.9515242092870695e-05 0.0000000000000000e+00  3.0504635582235573e-14 -6.3918561607377025e-05 0.0000000000000000e+00  3.0495787967597700e-14 -6.7444018840752770e-05 0.0000000000000000e+00  3.0424634399300902e-14 -7.0269193375457846e-05 0.0000000000000000e+00  3.0222377373176101e-14 -7.2524840647463464e-05 0.0000000000000000e+00  3.0076357618656897e-14 -7.4309559409138962e-05 0.0000000000000000e+00  2.9938467023775423e-14 -7.5698399023976966e-05 0.0000000000000000e+00  2.9590710088049147e-14 -7.6748247459442861e-05 0.0000000000000000e+00  2.8566552994882622e-14 -7.7501367643281096e-05 0.0000000000000000e+00  2.6952863091732022e-14 -7.7987740580377063e-05 0.0000000000000000e+00  2.5358664120796938e-14 -7.8226595586918088e-05 0.0000000000000000e+00  2.3957578346549597e-14 -7.8227340859283448e-05 0.0000000000000000e+00  2.2672738775125965e-14 -7.7990005585278771e-05 0.0000000000000000e+00  2.0333072652937709e-14 -7.7505241203391147e-05 0.0000000000000000e+00  1.6681701940289024e-14 -7.6753881575515945e-05 0.0000000000000000e+00  1.2150155880788169e-14 -7.5706011577915991e-05 0.0000000000000000e+00  7.6918516047564489e-15 -7.4319406485685827e-05 0.0000000000000000e+00  4.1630446887037917e-15 -7.2536917967477813e-05 0.0000000000000000e+00  1.9025498256482115e-15 -7.0280921963215677e-05 0.0000000000000000e+00  7.2917341497786846e-16 -6.7434349336973267e-05 0.0000000000000000e+00  2.3286887680223353e-16 -6.3745930283174300e-05 0.0000000000000000e+00  6.0126584981222733e-17 -5.8286038536872814e-05 0.0000000000000000e+00  1.0779518097601762e-17 -4.6240654787033240e-05 0.0000000000000000e+00  0.0000000000000000e+00 0.0000000000000000e+00 0.0000000000000000e+00  2.1933238016748369e-13 -1.4646134118012393e-08 0.0000000000000000e+00  0.0000000000000000e+00 0.0000000000000000e+00 0.0000000000000000e+00  2.4361276893080555e-13 -8.4271724268855530e-08 0.0000000000000000e+00  2.4943930948492319e-13 -3.4928631724024518e-07 0.0000000000000000e+00  2.5082848831921182e-13 -1.3273951694709710e-06 0.0000000000000000e+00  2.5114883394700646e-13 -3.5491248359425084e-06 0.0000000000000000e+00  2.5122080377229637e-13 -5.8032229426271137e-06 0.0000000000000000e+00  2.5123647575641025e-13 -7.5889228868163285e-06 0.0000000000000000e+00  2.5123884521304692e-13 -9.0002267568330864e-06 0.0000000000000000e+00  2.5123551417660466e-13 -1.0111724945697616e-05 0.0000000000000000e+00  2.5122128689993898e-13 -1.0993991244323242e-05 0.0000000000000000e+00  2.5118682038369291e-13 -1.1698985486340219e-05 0.0000000000000000e+00  2.5113634024024720e-13 -1.2263761530838895e-05 0.0000000000000000e+00  2.5078109700354413e-13 -1.2715630457256160e-05 0.0000000000000000e+00  2.4893076774718277e-13 -1.3074983967918799e-0