<?xml version="1.0"?>
<VTKFile type="UnstructuredGrid"  version="0.1"  >
<UnstructuredGrid>
<Piece  NumberOfPoints="759" NumberOfCells="1408">
<Points>
<DataArray  type="Float64"  NumberOfComponents="3"  format="ascii">0 0.46875 0  0.03125 0.46875 0  0.03125 0.515625 0  0 0.515625 0  0.0625 0.46875 0  0.0625 0.515625 0  0.09375 0.46875 0  0.09375 0.515625 0  0.125 0.46875 0  0.125 0.515625 0  0.15625 0.46875 0  0.15625 0.515625 0  0.1875 0.46875 0  0.1875 0.515625 0  0.21875 0.46875 0  0.21875 0.515625 0  0.25 0.46875 0  0.25 0.515625 0  0.28125 0.46875 0  0.28125 0.515625 0  0.3125 0.46875 0  0.3125 0.515625 0  0.34375 0.46875 0  0.34375 0.515625 0  0.375 0.46875 0  0.375 0.515625 0  0.40625 0.46875 0  0.40625 0.515625 0  0.4375 0.46875 0  0.4375 0.515625 0  0.46875 0.46875 0  0.46875 0.515625 0  0.5 0.46875 0  0.5 0.515625 0  0.53125 0.46875 0  0.53125 0.515625 0  0.5625 0.46875 0  0.5625 0.515625 0  0.59375 0.46875 0  0.59375 0.515625 0  0.625 0.46875 0  0.625 0.515625 0  0.65625 0.46875 0  0.65625 0.515625 0  0.6875 0.46875 0  0.6875 0.515625 0  0.71875 0.46875 0  0.71875 0.515625 0  0.75 0.46875 0  0.75 0.515625 0  0.78125 0.46875 0  0.78125 0.515625 0  0.8125 0.46875 0  0.8125 0.515625 0  0.84375 0.46875 0  0.84375 0.515625 0  0.875 0.46875 0  0.875 0.515625 0  0.90625 0.46875 0  0.90625 0.515625 0  0.9375 0.46875 0  0.9375 0.515625 0  0.96875 0.46875 0  0.96875 0.515625 0  1 0.46875 0  1 0.515625 0  0.03125 0.5625 0  0 0.5625 0  0.0625 0.5625 0  0.09375 0.5625 0  0.125 0.5625 0  0.15625 0.5625 0  0.1875 0.5625 0  0.21875 0.5625 0  0.25 0.5625 0  0.28125 0.5625 0  0.3125 0.5625 0  0.34375 0.5625 0  0.375 0.5625 0  0.40625 0.5625 0  0.4375 0.5625 0  0.46875 0.5625 0  0.5 0.5625 0  0.53125 0.5625 0  0.5625 0.5625 0  0.59375 0.5625 0  0.625 0.5625 0  0.65625 0.5625 0  0.6875 0.5625 0  0.71875 0.5625 0  0.75 0.5625 0  0.78125 0.5625 0  0.8125 0.5625 0  0.84375 0.5625 0  0.875 0.5625 0  0.90625 0.5625 0  0.9375 0.5625 0  0.96875 0.5625 0  1 0.5625 0  0.03125 0.609375 0  0 0.609375 0  0.0625 0.609375 0  0.09375 0.609375 0  0.125 0.609375 0  0.15625 0.609375 0  0.1875 0.609375 0  0.21875 0.609375 0  0.25 0.609375 0  0.28125 0.609375 0  0.3125 0.609375 0  0.34375 0.609375 0  0.375 0.609375 0  0.40625 0.609375 0  0.4375 0.609375 0  0.46875 0.609375 0  0.5 0.609375 0  0.53125 0.609375 0  0.5625 0.609375 0  0.59375 0.609375 0  0.625 0.609375 0  0.65625 0.609375 0  0.6875 0.609375 0  0.71875 0.609375 0  0.75 0.609375 0  0.78125 0.609375 0  0.8125 0.609375 0  0.84375 0.609375 0  0.875 0.609375 0  0.90625 0.609375 0  0.9375 0.609375 0  0.96875 0.609375 0  1 0.609375 0  0.03125 0.65625 0  0 0.65625 0  0.0625 0.65625 0  0.09375 0.65625 0  0.125 0.65625 0  0.15625 0.65625 0  0.1875 0.65625 0  0.21875 0.65625 0  0.25 0.65625 0  0.28125 0.65625 0  0.3125 0.65625 0  0.34375 0.65625 0  0.375 0.65625 0  0.40625 0.65625 0  0.4375 0.65625 0  0.46875 0.65625 0  0.5 0.65625 0  0.53125 0.65625 0  0.5625 0.65625 0  0.59375 0.65625 0  0.625 0.65625 0  0.65625 0.65625 0  0.6875 0.65625 0  0.71875 0.65625 0  0.75 0.65625 0  0.78125 0.65625 0  0.8125 0.65625 0  0.84375 0.65625 0  0.875 0.65625 0  0.90625 0.65625 0  0.9375 0.65625 0  0.96875 0.65625 0  1 0.65625 0  0.03125 0.703125 0  0 0.703125 0  0.0625 0.703125 0  0.09375 0.703125 0  0.125 0.703125 0  0.15625 0.703125 0  0.1875 0.703125 0  0.21875 0.703125 0  0.25 0.703125 0  0.28125 0.703125 0  0.3125 0.703125 0  0.34375 0.703125 0  0.375 0.703125 0  0.40625 0.703125 0  0.4375 0.703125 0  0.46875 0.703125 0  0.5 0.703125 0  0.53125 0.703125 0  0.5625 0.703125 0  0.59375 0.703125 0  0.625 0.703125 0  0.65625 0.703125 0  0.6875 0.703125 0  0.71875 0.703125 0  0.75 0.703125 0  0.78125 0.703125 0  0.8125 0.703125 0  0.84375 0.703125 0  0.875 0.703125 0  0.90625 0.703125 0  0.9375 0.703125 0  0.96875 0.703125 0  1 0.703125 0  0.03125 0.75 0  0 0.75 0  0.0625 0.75 0  0.09375 0.75 0  0.125 0.75 0  0.15625 0.75 0  0.1875 0.75 0  0.21875 0.75 0  0.25 0.75 0  0.28125 0.75 0  0.3125 0.75 0  0.34375 0.75 0  0.375 0.75 0  0.40625 0.75 0  0.4375 0.75 0  0.46875 0.75 0  0.5 0.75 0  0.53125 0.75 0  0.5625 0.75 0  0.59375 0.75 0  0.625 0.75 0  0.65625 0.75 0  0.6875 0.75 0  0.71875 0.75 0  0.75 0.75 0  0.78125 0.75 0  0.8125 0.75 0  0.84375 0.75 0  0.875 0.75 0  0.90625 0.75 0  0.9375 0.75 0  0.96875 0.75 0  1 0.75 0  0.03125 0.796875 0  0 0.796875 0  0.0625 0.796875 0  0.09375 0.796875 0  0.125 0.796875 0  0.15625 0.796875 0  0.1875 0.796875 0  0.21875 0.796875 0  0.25 0.796875 0  0.28125 0.796875 0  0.3125 0.796875 0  0.34375 0.796875 0  0.375 0.796875 0  0.40625 0.796875 0  0.4375 0.796875 0  0.46875 0.796875 0  0.5 0.796875 0  0.53125 0.796875 0  0.5625 0.796875 0  0.59375 0.796875 0  0.625 0.796875 0  0.65625 0.796875 0  0.6875 0.796875 0  0.71875 0.796875 0  0.75 0.796875 0  0.78125 0.796875 0  0.8125 0.796875 0  0.84375 0.796875 0  0.875 0.796875 0  0.90625 0.796875 0  0.9375 0.796875 0  0.96875 0.796875 0  1 0.796875 0  0.03125 0.84375 0  0 0.84375 0  0.0625 0.84375 0  0.09375 0.84375 0  0.125 0.84375 0  0.15625 0.84375 0  0.1875 0.84375 0  0.21875 0.84375 0  0.25 0.84375 0  0.28125 0.84375 0  0.3125 0.84375 0  0.34375 0.84375 0  0.375 0.84375 0  0.40625 0.84375 0  0.4375 0.84375 0  0.46875 0.84375 0  0.5 0.84375 0  0.53125 0.84375 0  0.5625 0.84375 0  0.59375 0.84375 0  0.625 0.84375 0  0.65625 0.84375 0  0.6875 0.84375 0  0.71875 0.84375 0  0.75 0.84375 0  0.78125 0.84375 0  0.8125 0.84375 0  0.84375 0.84375 0  0.875 0.84375 0  0.90625 0.84375 0  0.9375 0.84375 0  0.96875 0.84375 0  1 0.84375 0  0.03125 0.890625 0  0 0.890625 0  0.0625 0.890625 0  0.09375 0.890625 0  0.125 0.890625 0  0.15625 0.890625 0  0.1875 0.890625 0  0.21875 0.890625 0  0.25 0.890625 0  0.28125 0.890625 0  0.3125 0.890625 0  0.34375 0.890625 0  0.375 0.890625 0  0.40625 0.890625 0  0.4375 0.890625 0  0.46875 0.890625 0  0.5 0.890625 0  0.53125 0.890625 0  0.5625 0.890625 0  0.59375 0.890625 0  0.625 0.890625 0  0.65625 0.890625 0  0.6875 0.890625 0  0.71875 0.890625 0  0.75 0.890625 0  0.78125 0.890625 0  0.8125 0.890625 0  0.84375 0.890625 0  0.875 0.890625 0  0.90625 0.890625 0  0.9375 0.890625 0  0.96875 0.890625 0  1 0.890625 0  0.03125 0.9375 0  0 0.9375 0  0.0625 0.9375 0  0.09375 0.9375 0  0.125 0.9375 0  0.15625 0.9375 0  0.1875 0.9375 0  0.21875 0.9375 0  0.25 0.9375 0  0.28125 0.9375 0  0.3125 0.9375 0  0.34375 0.9375 0  0.375 0.9375 0  0.40625 0.9375 0  0.4375 0.9375 0  0.46875 0.9375 0  0.5 0.9375 0  0.53125 0.9375 0  0.5625 0.9375 0  0.59375 0.9375 0  0.625 0.9375 0  0.65625 0.9375 0  0.6875 0.9375 0  0.71875 0.9375 0  0.75 0.9375 0  0.78125 0.9375 0  0.8125 0.9375 0  0.84375 0.9375 0  0.875 0.9375 0  0.90625 0.9375 0  0.9375 0.9375 0  0.96875 0.9375 0  1 0.9375 0  0.03125 0.984375 0  0 0.984375 0  0.0625 0.984375 0  0.09375 0.984375 0  0.125 0.984375 0  0.15625 0.984375 0  0.1875 0.984375 0  0.21875 0.984375 0  0.25 0.984375 0  0.28125 0.984375 0  0.3125 0.984375 0  0.34375 0.984375 0  0.375 0.984375 0  0.40625 0.984375 0  0.4375 0.984375 0  0.46875 0.984375 0  0.5 0.984375 0  0.53125 0.984375 0  0.5625 0.984375 0  0.59375 0.984375 0  0.625 0.984375 0  0.65625 0.984375 0  0.6875 0.984375 0  0.71875 0.984375 0  0.75 0.984375 0  0.78125 0.984375 0  0.8125 0.984375 0  0.84375 0.984375 0  0.875 0.984375 0  0.90625 0.984375 0  0.9375 0.984375 0  0.96875 0.984375 0  1 0.984375 0  0.03125 1.03125 0  0 1.03125 0  0.0625 1.03125 0  0.09375 1.03125 0  0.125 1.03125 0  0.15625 1.03125 0  0.1875 1.03125 0  0.21875 1.03125 0  0.25 1.03125 0  0.28125 1.03125 0  0.3125 1.03125 0  0.34375 1.03125 0  0.375 1.03125 0  0.40625 1.03125 0  0.4375 1.03125 0  0.46875 1.03125 0  0.5 1.03125 0  0.53125 1.03125 0  0.5625 1.03125 0  0.59375 1.03125 0  0.625 1.03125 0  0.65625 1.03125 0  0.6875 1.03125 0  0.71875 1.03125 0  0.75 1.03125 0  0.78125 1.03125 0  0.8125 1.03125 0  0.84375 1.03125 0  0.875 1.03125 0  0.90625 1.03125 0  0.9375 1.03125 0  0.96875 1.03125 0  1 1.03125 0  0.03125 1.078125 0  0 1.078125 0  0.0625 1.078125 0  0.09375 1.078125 0  0.125 1.078125 0  0.15625 1.078125 0  0.1875 1.078125 0  0.21875 1.078125 0  0.25 1.078125 0  0.28125 1.078125 0  0.3125 1.078125 0  0.34375 1.078125 0  0.375 1.078125 0  0.40625 1.078125 0  0.4375 1.078125 0  0.46875 1.078125 0  0.5 1.078125 0  0.53125 1.078125 0  0.5625 1.078125 0  0.59375 1.078125 0  0.625 1.078125 0  0.65625 1.078125 0  0.6875 1.078125 0  0.71875 1.078125 0  0.75 1.078125 0  0.78125 1.078125 0  0.8125 1.078125 0  0.84375 1.078125 0  0.875 1.078125 0  0.90625 1.078125 0  0.9375 1.078125 0  0.96875 1.078125 0  1 1.078125 0  0.03125 1.125 0  0 1.125 0  0.0625 1.125 0  0.09375 1.125 0  0.125 1.125 0  0.15625 1.125 0  0.1875 1.125 0  0.21875 1.125 0  0.25 1.125 0  0.28125 1.125 0  0.3125 1.125 0  0.34375 1.125 0  0.375 1.125 0  0.40625 1.125 0  0.4375 1.125 0  0.46875 1.125 0  0.5 1.125 0  0.53125 1.125 0  0.5625 1.125 0  0.59375 1.125 0  0.625 1.125 0  0.65625 1.125 0  0.6875 1.125 0  0.71875 1.125 0  0.75 1.125 0  0.78125 1.125 0  0.8125 1.125 0  0.84375 1.125 0  0.875 1.125 0  0.90625 1.125 0  0.9375 1.125 0  0.96875 1.125 0  1 1.125 0  0.03125 1.171875 0  0 1.171875 0  0.0625 1.171875 0  0.09375 1.171875 0  0.125 1.171875 0  0.15625 1.171875 0  0.1875 1.171875 0  0.21875 1.171875 0  0.25 1.171875 0  0.28125 1.171875 0  0.3125 1.171875 0  0.34375 1.171875 0  0.375 1.171875 0  0.40625 1.171875 0  0.4375 1.171875 0  0.46875 1.171875 0  0.5 1.171875 0  0.53125 1.171875 0  0.5625 1.171875 0  0.59375 1.171875 0  0.625 1.171875 0  0.65625 1.171875 0  0.6875 1.171875 0  0.71875 1.171875 0  0.75 1.171875 0  0.78125 1.171875 0  0.8125 1.171875 0  0.84375 1.171875 0  0.875 1.171875 0  0.90625 1.171875 0  0.9375 1.171875 0  0.96875 1.171875 0  1 1.171875 0  0.03125 1.21875 0  0 1.21875 0  0.0625 1.21875 0  0.09375 1.21875 0  0.125 1.21875 0  0.15625 1.21875 0  0.1875 1.21875 0  0.21875 1.21875 0  0.25 1.21875 0  0.28125 1.21875 0  0.3125 1.21875 0  0.34375 1.21875 0  0.375 1.21875 0  0.40625 1.21875 0  0.4375 1.21875 0  0.46875 1.21875 0  0.5 1.21875 0  0.53125 1.21875 0  0.5
[...]
<PointData  Vectors="u"> 
<DataArray  type="Float64"  Name="u"  NumberOfComponents="3" format="ascii">1.4116404573553124e-02 7.1452968312887301e-04 0.0000000000000000e+00  1.6277598661592105e-02 3.9893942962685603e-03 0.0000000000000000e+00  1.7909148531930340e-02 4.2714868426828867e-03 0.0000000000000000e+00  1.5337470087753064e-02 9.3240343621281278e-04 0.0000000000000000e+00  1.5726482829304410e-02 7.2650149525197751e-03 0.0000000000000000e+00  1.7523752970777823e-02 7.8605006878711414e-03 0.0000000000000000e+00  1.4635503549582979e-02 1.0194592417257682e-02 0.0000000000000000e+00  1.6218958721356914e-02 1.1032491237323732e-02 0.0000000000000000e+00  1.3206368207138330e-02 1.2658694123601617e-02 0.0000000000000000e+00  1.4558910934966614e-02 1.3675993591013989e-02 0.0000000000000000e+00  1.1547070994253955e-02 1.4591619004905765e-02 0.0000000000000000e+00  1.2696883224117802e-02 1.5729451073659719e-02 0.0000000000000000e+00  9.7473005619677956e-03 1.5949090669835159e-02 0.0000000000000000e+00  1.0721977188727656e-02 1.7154511569778277e-02 0.0000000000000000e+00  7.8853468108943982e-03 1.6707065856229653e-02 0.0000000000000000e+00  8.7091897298078591e-03 1.7933210654599577e-02 0.0000000000000000e+00  6.0301742440704072e-03 1.6861448013784312e-02 0.0000000000000000e+00  6.7244942383638383e-03 1.8067035512750202e-02 0.0000000000000000e+00  4.2423914748386327e-03 1.6426870677481248e-02 0.0000000000000000e+00  4.8257617378983488e-03 1.7575795947492798e-02 0.0000000000000000e+00  2.5748506692180395e-03 1.5435072217712150e-02 0.0000000000000000e+00  3.0635746022324084e-03 1.6495989318198200e-02 0.0000000000000000e+00  1.0731534857451052e-03 1.3932945723038926e-02 0.0000000000000000e+00  1.4814309912890553e-03 1.4878993814610445e-02 0.0000000000000000e+00  -2.2398220512490348e-04 1.1980561194357014e-02 0.0000000000000000e+00  1.1630307328468160e-04 1.2789065051576188e-02 0.0000000000000000e+00  -1.2843362063168461e-03 9.6490869845348819e-03 0.0000000000000000e+00  -1.0012040705501793e-03 1.0301388037241520e-02 0.0000000000000000e+00  -2.0819637071952863e-03 7.0187996321810237e-03 0.0000000000000000e+00  -1.8465178168779021e-03 7.5000690855332062e-03 0.0000000000000000e+00  -2.5969905461270797e-03 4.1770597066072054e-03 0.0000000000000000e+00  -2.4010603194232552e-03 4.4762386546738746e-03 0.0000000000000000e+00  -2.8154917247600999e-03 1.2163721488788551e-03 0.0000000000000000e+00  -2.6520346560968871e-03 1.3261142048344274e-03 0.0000000000000000e+00  -2.7294279088361626e-03 -1.7675876353315703e-03 0.0000000000000000e+00  -2.5925282409056936e-03 -1.8508531089318646e-03 0.0000000000000000e+00  -2.3367051510183668e-03 -4.6779209534117388e-03 0.0000000000000000e+00  -2.2215442107354610e-03 -4.9539034652925770e-03 0.0000000000000000e+00  -1.6412665512340642e-03 -7.4185339906249637e-03 0.0000000000000000e+00  -1.5442390861376946e-03 -7.8828896261198440e-03 0.0000000000000000e+00  -6.5326482224054212e-04 -9.8962082400394068e-03 0.0000000000000000e+00  -5.7210938781262284e-04 -1.0540323322274751e-02 0.0000000000000000e+00  6.1070612549282222e-04 -1.2022806191196772e-02 0.0000000000000000e+00  6.7657751604351145e-04 -1.2833492920912409e-02 0.0000000000000000e+00  2.1273103233583604e-03 -1.3717563474595549e-02 0.0000000000000000e+00  2.1764357469864809e-03 -1.4676750736219676e-02 0.0000000000000000e+00  3.8662197992552503e-03 -1.4909542242975825e-02 0.0000000000000000e+00  3.8944692602766412e-03 -1.5993902683232419e-02 0.0000000000000000e+00  5.7898215837896751e-03 -1.5540159814223110e-02 0.0000000000000000e+00  5.7897035100138014e-03 -1.6720757792677829e-02 0.0000000000000000e+00  7.8529920612360107e-03 -1.5565826195655325e-02 0.0000000000000000e+00  7.8126753662068147e-03 -1.6807723527349501e-02 0.0000000000000000e+00  1.0002713021485740e-02 -1.4960577001835958e-02 0.0000000000000000e+00  9.9050445451463950e-03 -1.6222448934550802e-02 0.0000000000000000e+00  1.2176839569910921e-02 -1.3718715371876028e-02 0.0000000000000000e+00  1.1998426051319910e-02 -1.4952366925404298e-02 0.0000000000000000e+00  1.4298487566890812e-02 -1.1857520333746747e-02 0.0000000000000000e+00  1.4010394172374952e-02 -1.3007192460926392e-02 0.0000000000000000e+00  1.6249773529094028e-02 -9.4210589254771996e-03 0.0000000000000000e+00  1.5825467658158104e-02 -1.0421952315616214e-02 0.0000000000000000e+00  1.7752577106647460e-02 -6.4917846055997435e-03 0.0000000000000000e+00  1.7208732870679852e-02 -7.2655785377075035e-03 0.0000000000000000e+00  1.7927575459500487e-02 -3.2623604413105395e-03 0.0000000000000000e+00  1.7459892389193470e-02 -3.6937587742193164e-03 0.0000000000000000e+00  1.5189944717784804e-02 -3.0009061472760826e-04 0.0000000000000000e+00  1.4590422329281134e-02 -4.1159117223280695e-04 0.0000000000000000e+00  1.9809739728735683e-02 5.0661761823181410e-03 0.0000000000000000e+00  1.7169910050595781e-02 1.3983234918344895e-03 0.0000000000000000e+00  1.9303859220627943e-02 9.3118667885039013e-03 0.0000000000000000e+00  1.7925727363975970e-02 1.3011096567224436e-02 0.0000000000000000e+00  1.6157627324203144e-02 1.6036963154027840e-02 0.0000000000000000e+00  1.4168989328484257e-02 1.8340953912047011e-02 0.0000000000000000e+00  1.2062187074006657e-02 1.9898667243450859e-02 0.0000000000000000e+00  9.9185063604613193e-03 2.0705414349854515e-02 0.0000000000000000e+00  7.8080872367066265e-03 2.0775295337360927e-02 0.0000000000000000e+00  5.7924392186910869e-03 2.0139897469631050e-02 0.0000000000000000e+00  3.9246101291647052e-03 1.8846782476243672e-02 0.0000000000000000e+00  2.2501779770350339e-03 1.6957626914127274e-02 0.0000000000000000e+00  8.0730951915981017e-04 1.4546414549310030e-02 0.0000000000000000e+00  -3.7234692357636655e-04 1.1697460855360112e-02 0.0000000000000000e+00  -1.2637307038898726e-03 8.5036464335507388e-03 0.0000000000000000e+00  -1.8477137236627996e-03 5.0645359270894159e-03 0.0000000000000000e+00  -2.1112134287101310e-03 1.4847166106372238e-03 0.0000000000000000e+00  -2.0468977444963515e-03 -2.1279914304553321e-03 0.0000000000000000e+00  -1.6535177024576855e-03 -5.6641802542022803e-03 0.0000000000000000e+00  -9.3588861825018993e-04 -9.0146842496293348e-03 0.0000000000000000e+00  9.4558632764134179e-05 -1.2072378925937993e-02 0.0000000000000000e+00  1.4194910283732399e-03 -1.4734216276418619e-02 0.0000000000000000e+00  3.0128869665986624e-03 -1.6903325222048973e-02 0.0000000000000000e+00  4.8406513584706087e-03 -1.8491364025368523e-02 0.0000000000000000e+00  6.8597417700909389e-03 -1.9420950859872603e-02 0.0000000000000000e+00  9.0177588202292915e-03 -1.9628267862314940e-02 0.0000000000000000e+00  1.1252072090819142e-02 -1.9065618592467696e-02 0.0000000000000000e+00  1.3488744272798885e-02 -1.7703944145834618e-02 0.0000000000000000e+00  1.5637768909951871e-02 -1.5535160509994589e-02 0.0000000000000000e+00  1.7572050556516658e-02 -1.2575110890608126e-02 0.0000000000000000e+00  1.9028165020332364e-02 -8.8733649766176183e-03 0.0000000000000000e+00  1.9188201434765365e-02 -4.5895429446021997e-03 0.0000000000000000e+00  1.5681246120259829e-02 -8.5876882922580563e-04 0.0000000000000000e+00  2.2684897513576760e-02 6.0281192206357980e-03 0.0000000000000000e+00  1.9756190022828114e-02 1.8639415714933375e-03 0.0000000000000000e+00  2.2100839995930859e-02 1.1038767055532771e-02 0.0000000000000000e+00  2.0603356084457340e-02 1.5355441136031203e-02 0.0000000000000000e+00  1.8691582434420539e-02 1.8829866632059260e-02 0.0000000000000000e+00  1.6542530695759027e-02 2.1425980098673372e-02 0.0000000000000000e+00  1.4266166376368542e-02 2.3135524456753927e-02 0.0000000000000000e+00  1.1951687494098579e-02 2.3970055198710323e-02 0.0000000000000000e+00  9.6763506975069014e-03 2.3959168735925573e-02 0.0000000000000000e+00  7.5064912109391955e-03 2.3149085406142317e-02 0.0000000000000000e+00  5.4994532775715565e-03 2.1600945008846111e-02 0.0000000000000000e+00  3.7032132003058790e-03 1.9389064139404954e-02 0.0000000000000000e+00  2.1581723507340983e-03 1.6599017176081879e-02 0.0000000000000000e+00  8.9683124359152982e-04 1.3325940797617718e-02 0.0000000000000000e+00  -5.4677801516505190e-05 9.6727185493476562e-03 0.0000000000000000e+00  -6.7696945473153566e-04 5.7485118600351459e-03 0.0000000000000000e+00  -9.5624142083809444e-04 1.6671166131511153e-03 0.0000000000000000e+00  -8.8486987690642263e-04 -2.4543420816783394e-03 0.0000000000000000e+00  -4.6082239284309199e-04 -6.4969789512184057e-03 0.0000000000000000e+00  3.1152062185826933e-04 -1.0341500581917587e-02 0.0000000000000000e+00  1.4214361714428502e-03 -1.3869903904598269e-02 0.0000000000000000e+00  2.8506816315555816e-03 -1.6967118921665882e-02 0.0000000000000000e+00  4.5731710947416980e-03 -1.9523030549457997e-02 0.0000000000000000e+00  6.5536172098528576e-03 -2.1434574956066727e-02 0.0000000000000000e+00  8.7470541135729902e-03 -2.2608164506817831e-02 0.0000000000000000e+00  1.1097457984642021e-02 -2.2962188755941894e-02 0.0000000000000000e+00  1.3537294085070067e-02 -2.2429664737752108e-02 0.0000000000000000e+00  1.5985487254083025e-02 -2.0960803615743952e-02 0.0000000000000000e+00  1.8342395094744550e-02 -1.8525614027184605e-02 0.0000000000000000e+00  2.0464051775761379e-02 -1.5117527764753896e-02 0.0000000000000000e+00  2.2041980844991434e-02 -1.0767024663045806e-02 0.0000000000000000e+00  2.2093537607001890e-02 -5.6509301364522698e-03 0.0000000000000000e+00  1.7841474020303796e-02 -1.3598293334873921e-03 0.0000000000000000e+00  2.6554412414019582e-02 7.0926751546408519e-03 0.0000000000000000e+00  2.3140648876937578e-02 2.3477421809103864e-03 0.0000000000000000e+00  2.5920209604599651e-02 1.2945531110267298e-02 0.0000000000000000e+00  2.4291379328574208e-02 1.7936847976192858e-02 0.0000000000000000e+00  2.2217005194581838e-02 2.1897904906008837e-02 0.0000000000000000e+00  1.9887249397463756e-02 2.4806992619747684e-02 0.0000000000000000e+00  1.7422366329530873e-02 2.6674151795893802e-02 0.0000000000000000e+00  1.4920905741996841e-02 2.7529630240869320e-02 0.0000000000000000e+00  1.2466632087636821e-02 2.7421114333887036e-02 0.0000000000000000e+00  1.0132019375942826e-02 2.6411889718402547e-02 0.0000000000000000e+00  7.9775621277418662e-03 2.4578897949025798e-02 0.0000000000000000e+00  6.0544337536715710e-03 2.2010844942997643e-02 0.0000000000000000e+00  4.4036947575060046e-03 1.8806357903343993e-02 0.0000000000000000e+00  3.0591872594175917e-03 1.5072255009237947e-02 0.0000000000000000e+00  2.0465530552987699e-03 1.0922098617641341e-02 0.0000000000000000e+00  1.3858534042822715e-03 6.4747563112997472e-03 0.0000000000000000e+00  1.0904295517030248e-03 1.8533668214475341e-03 0.0000000000000000e+00  1.1688272542176598e-03 -2.8158929184634311e-03 0.0000000000000000e+00  1.6232906620812504e-03 -7.4046421010119639e-03 0.0000000000000000e+00  2.4508678934591493e-03 -1.1783542295200598e-02 0.0000000000000000e+00  3.6415681701961514e-03 -1.5823299072592459e-02 0.0000000000000000e+00  5.1785742997845340e-03 -1.9396192309083599e-02 0.0000000000000000e+00  7.0360812388671739e-03 -2.2377589674780901e-02 0.0000000000000000e+00  9.1790104768301947e-03 -2.4647979689321774e-02 0.0000000000000000e+00  1.1560784056445717e-02 -2.6095170898033898e-02 0.0000000000000000e+00  1.4122820051568348e-02 -2.6616877516401374e-02 0.0000000000000000e+00  1.6792574732123190e-02 -2.6123476490550423e-02 0.0000000000000000e+00  1.9482168089639436e-02 -2.4540933993540941e-02 0.0000000000000000e+00  2.2081281019794632e-02 -2.1814004760636618e-02 0.0000000000000000e+00  2.4426785400820085e-02 -1.7911172487920561e-02 0.0000000000000000e+00  2.6155297136012026e-02 -1.2843083097310689e-02 0.0000000000000000e+00  2.6081729888830028e-02 -6.8066087170332353e-03 0.0000000000000000e+00  2.0887047650963438e-02 -1.8581570274474838e-03 0.0000000000000000e+00  3.1464582976782028e-02 8.2557492852091859e-03 0.0000000000000000e+00  2.7365439248291809e-02 2.8712405426363887e-03 0.0000000000000000e+00  3.0807993140308503e-02 1.5022666734262991e-02 0.0000000000000000e+00  2.9043925562508982e-02 2.0740689237931032e-02 0.0000000000000000e+00  2.6801031128950832e-02 2.5220862189359834e-02 0.0000000000000000e+00  2.4288825963304849e-02 2.8457709643811387e-02 0.0000000000000000e+00  2.1639555928516872e-02 3.0482433524240272e-02 0.0000000000000000e+00  1.8959820999757786e-02 3.1346984949533280e-02 0.0000000000000000e+00  1.6340680362068736e-02 3.1120258888850512e-02 0.0000000000000000e+00  1.3858161064040734e-02 2.9885411631488671e-02 0.0000000000000000e+00  1.1576298017600906e-02 2.7737678295351606e-02 0.0000000000000000e+00  9.5462205864451904e-03 2.4782083759750117e-02 0.0000000000000000e+00  7.8100264162955634e-03 2.1131674548925471e-02 0.0000000000000000e+00  6.3995633579294019e-03 1.6905793489562941e-02 0.0000000000000000e+00  5.3406098119313482e-03 1.2228883454808954e-02 0.0000000000000000e+00  4.6510184611277035e-03 7.2294604860188754e-03 0.0000000000000000e+00  4.3447298408281678e-03 2.0393713033553152e-03 0.0000000000000000e+00  4.4292181396529424e-03 -3.2066775127982438e-03 0.0000000000000000e+00  4.9085384989786627e-03 -8.3716921704077383e-03 0.0000000000000000e+00  5.7803262190304749e-03 -1.3316692523407885e-02 0.0000000000000000e+00  7.0375184668163950e-03 -1.7901488115759291e-02 0.0000000000000000e+00  8.6649943019935886e-03 -2.1985346777138537e-02 0.0000000000000000e+00  1.0639895159166775e-02 -2.5428337377064396e-02 0.0000000000000000e+00  1.2928337536413179e-02 -2.8092844683789045e-02 0.0000000000000000e+00  1.5484858898369645e-02 -2.9845737312663944e-02 0.0000000000000000e+00  1.8249482185910548e-02 -3.0560929423599632e-02 0.0000000000000000e+00  2.1146870263759700e-02 -3.0122427999985189e-02 0.0000000000000000e+00  2.4082967655522876e-02 -2.8427820881512356e-02 0.0000000000000000e+00  2.6937503004989038e-02 -2.5392374043854228e-02 0.0000000000000000e+00  2.9525884112610180e-02 -2.0955744169681930e-02 0.0000000000000000e+00  3.1419714846257621e-02 -1.5105825965241742e-02 0.0000000000000000e+00  3.1186028217857029e-02 -8.0601180004222020e-03 0.0000000000000000e+00  2.4808131867933174e-02 -2.3729759476365359e-03 0.0000000000000000e+00  3.7508516794787013e-02 9.5177006652773007e-03 0.0000000000000000e+00  3.2504243155450592e-02 3.4512677874691043e-03 0.0000000000000000e+00  3.6862301323599030e-02 1.7266467590633886e-02 0.0000000000000000e+00  3.4968541103607552e-02 2.3757713414251282e-02 0.0000000000000000e+00  3.2565015559365647e-02 2.8781663294258492e-02 0.0000000000000000e+00  2.9887511159507683e-02 3.2352300490537216e-02 0.0000000000000000e+00  2.7080048724338873e-02 3.4525757516304989e-02 0.0000000000000000e+00  2.4257486809468307e-02 3.5379794235432714e-02 0.0000000000000000e+00  2.1515096756902372e-02 3.5008298480188479e-02 0.0000000000000000e+00  1.8931796533569283e-02 3.3517862583774906e-02 0.0000000000000000e+00  1.6570688791762989e-02 3.1024749383826628e-02 0.0000000000000000e+00  1.4482288186762829e-02 2.7652523269142675e-02 0.0000000000000000e+00  1.2704598377640089e-02 2.3529859290732581e-02 0.0000000000000000e+00  1.1267707102011037e-02 1.8789254425749486e-02 0.0000000000000000e+00  1.0192521588181926e-02 1.3565812028338254e-02 0.0000000000000000e+00  9.4960979222727341e-03 7.9969731641452418e-03 0.0000000000000000e+00  9.1888293711429210e-03 2.2221462329917495e-03 0.0000000000000000e+00  9.2796256185331116e-03 -3.6169362332495588e-03 0.0000000000000000e+00  9.7716502479591912e-03 -9.3760456958215770e-03 0.0000000000000000e+00  1.0666432584762502e-02 -1.4908057609617272e-02 0.0000000000000000e+00  1.1958980762740972e-02 -2.0062731370460881e-02 0.0000000000000000e+00  1.3639746992087563e-02 -2.4686881518220623e-02 0.0000000000000000e+00  1.5689769749289588e-02 -2.8624804222974698e-02 0.0000000000000000e+00  1.8080571450825960e-02 -3.1719546873827831e-02 0.0000000000000000e+00  2.0769934803965179e-02 -3.3814645528434023e-02 0.0000000000000000e+00  2.3700475766745766e-02 -3.4756812088419270e-02 0.0000000000000000e+00  2.6796365479641222e-02 -3.4399283040945777e-02 0.0000000000000000e+00  2.9960250970482310e-02 -3.2606045733351068e-02 0.0000000000000000e+00  3.3062790005802256e-02 -2.9257156231719327e-02 0.0000000000000000e+00  3.5896652778238627e-02 -2.4257546550475188e-02 0.0000000000000000e+00  3.7956710274343067e-02 -1.7567094026468433e-02 0.0000000000000000e+00  3.7509727688446202e-02 -9.4232457939229537e-03 0.0000000000000000e+00  2.9663593276301071e-02 -2.9289519396612437e-03 0.0000000000000000e+00  4.4816243842657047e-02 1.0874323202963689e-02 0.0000000000000000e+00  3.8657552463833247e-02 4.1014100916158015e-03 0.0000000000000000e+00  4.4222261442135161e-02 1.9664317726474059e-02 0.0000000000000000e+00  4.2214769897967304e-02 2.6963500350998683e-02 0.0000000000000000e+00  3.9674085302674619e-02 3.2541513684627654e-02 0.0000000000000000e+00  3.6868351619880044e-02 3.6436680840129396e-02 0.0000000000000000e+00  3.3954096066536189e-02 3.8735585673927021e-02 0.0000000000000000e+00  3.1052335057964484e-02 3.9547275847310603e-02 0.0000000000000000e+00  2.8260392599259998e-02 3.8995693700543080e-02 0.0000000000000000e+00  2.5655576117515753e-02 3.7215102800299243e-02 0.0000000000000000e+00  2.3297310515175980e-02 3.4346178167493246e-02 0.0000000000000000e+00  2.1229606732287441e-02 3.0533135788567676e-02 0.0000000000000000e+00  1.9484513922113814e-02 2.5921532022492626e-02 0.0000000000000000e+00  1.8083901907809827e-02 2.0656896943404689e-02 0.0000000000000000e+00  1.7043933008941900e-02 1.4884321396909806e-02 0.0000000000000000e+00  1.6374672649506580e-02 8.7483196265060268e-03 0.0000000000000000e+00  1.6085452156477401e-02 2.3938649297976715e-03 0.0000000000000000e+00  1.6181648021390459e-02 -4.0329763186101328e-03 0.0000000000000000e+00  1.6669879211435975e-02 -1.0383255118734894e-02 0.0000000000000000e+00  1.7552692534271119e-02 -1.6504205549725207e-02 0.0000000000000000e+00  1.8832421666720306e-02 -2.2237655416045186e-02 0.0000000000000000e+00  2.0504946915151919e-02 -2.7419279383705728e-02 0.0000000000000000e+00  2.2560816910763455e-02 -3.1878199662227942e-02 0.0000000000000000e+00  2.4979486601022550e-02 -3.5437276440641430e-02 0.0000000000000000e+00  2.7727702185567148e-02 -3.7914674007881281e-02 0.0000000000000000e+00  3.0754735145770644e-02 -3.9126172407406200e-02 0.0000000000000000e+00  3.3989353763945726e-02 -3.8889093359997032e-02 0.0000000000000000e+00  3.7334590786926351e-02 -3.7027214239501352e-02 0.0000000000000000e+00  4.0654763656850487e-02 -3.3377689643144970e-02 0.0000000000000000e+00  4.3718828411094195e-02 -2.7802345789442521e-02 0.0000000000000000e+00  4.5932244967776752e-02 -2.0224973799722559e-02 0.0000000000000000e+00  4.5200845413144848e-02 -1.0900617400995438e-02 0.0000000000000000e+00  3.5551872433339876e-02 -3.5458896940846274e-03 0.0000000000000000e+00  5.3548282637079093e-02 1.2315021208786220e-02 0.0000000000000000e+00  4.5947411968934232e-02 4.8334416181691174e-03 0.0000000000000000e+00  5.3059473877609564e-02 2.2190254496505930e-02 0.0000000000000000e+00  5.0966346330086357e-02 3.0312395727935933e-02 0.0000000000000000e+00  4.8329612594658906e-02 3.6432146784591522e-02 0.0000000000000000e+00  4.5456509825450270e-02 4.0619375882368053e-02 0.0000000000000000e+00  4.2516027100904387e-02 4.2999117374981861e-02 0.0000000000000000e+00  3.9632635371416404e-02 4.3719125707204029e-02 0.0000000000000000e+00  3.6901455891553102e-02 4.2940133097098709e-02 0.0000000000000000e+00  3.4393178847575624e-02 4.0829285183494435e-02 0.0000000000000000e+00  3.2157466057195265e-02 3.7555588551491735e-02 0.0000000000000000e+00  3.0226761951606819e-02 3.3286082531921182e-02 0.0000000000000000e+00  2.8620478405468441e-02 2.8183909177875062e-02 0.0000000000000000e+00  2.7349007713211814e-02 2.2407008189724336e-02 0.0000000000000000e+00  2.6417134046622902e-02 1.6108392081218954e-02 0.0000000000000000e+00  2.5827600094859730e-02 9.4370610680812594e-03 0.0000000000000000e+00  2.5582621548528726e-02 2.5396236150452877e-03 0.0000000000000000e+00  2.5686974330940179e-02 -4.4371390972698412e-03 0.0000000000000000e+00  