<?xml version="1.0"?>
<VTKFile type="UnstructuredGrid"  version="0.1"  >
<UnstructuredGrid>
<Piece  NumberOfPoints="759" NumberOfCells="1408">
<Points>
<DataArray  type="Float64"  NumberOfComponents="3"  format="ascii">0 0.46875 0  0.03125 0.46875 0  0.03125 0.515625 0  0 0.515625 0  0.0625 0.46875 0  0.0625 0.515625 0  0.09375 0.46875 0  0.09375 0.515625 0  0.125 0.46875 0  0.125 0.515625 0  0.15625 0.46875 0  0.15625 0.515625 0  0.1875 0.46875 0  0.1875 0.515625 0  0.21875 0.46875 0  0.21875 0.515625 0  0.25 0.46875 0  0.25 0.515625 0  0.28125 0.46875 0  0.28125 0.515625 0  0.3125 0.46875 0  0.3125 0.515625 0  0.34375 0.46875 0  0.34375 0.515625 0  0.375 0.46875 0  0.375 0.515625 0  0.40625 0.46875 0  0.40625 0.515625 0  0.4375 0.46875 0  0.4375 0.515625 0  0.46875 0.46875 0  0.46875 0.515625 0  0.5 0.46875 0  0.5 0.515625 0  0.53125 0.46875 0  0.53125 0.515625 0  0.5625 0.46875 0  0.5625 0.515625 0  0.59375 0.46875 0  0.59375 0.515625 0  0.625 0.46875 0  0.625 0.515625 0  0.65625 0.46875 0  0.65625 0.515625 0  0.6875 0.46875 0  0.6875 0.515625 0  0.71875 0.46875 0  0.71875 0.515625 0  0.75 0.46875 0  0.75 0.515625 0  0.78125 0.46875 0  0.78125 0.515625 0  0.8125 0.46875 0  0.8125 0.515625 0  0.84375 0.46875 0  0.84375 0.515625 0  0.875 0.46875 0  0.875 0.515625 0  0.90625 0.46875 0  0.90625 0.515625 0  0.9375 0.46875 0  0.9375 0.515625 0  0.96875 0.46875 0  0.96875 0.515625 0  1 0.46875 0  1 0.515625 0  0.03125 0.5625 0  0 0.5625 0  0.0625 0.5625 0  0.09375 0.5625 0  0.125 0.5625 0  0.15625 0.5625 0  0.1875 0.5625 0  0.21875 0.5625 0  0.25 0.5625 0  0.28125 0.5625 0  0.3125 0.5625 0  0.34375 0.5625 0  0.375 0.5625 0  0.40625 0.5625 0  0.4375 0.5625 0  0.46875 0.5625 0  0.5 0.5625 0  0.53125 0.5625 0  0.5625 0.5625 0  0.59375 0.5625 0  0.625 0.5625 0  0.65625 0.5625 0  0.6875 0.5625 0  0.71875 0.5625 0  0.75 0.5625 0  0.78125 0.5625 0  0.8125 0.5625 0  0.84375 0.5625 0  0.875 0.5625 0  0.90625 0.5625 0  0.9375 0.5625 0  0.96875 0.5625 0  1 0.5625 0  0.03125 0.609375 0  0 0.609375 0  0.0625 0.609375 0  0.09375 0.609375 0  0.125 0.609375 0  0.15625 0.609375 0  0.1875 0.609375 0  0.21875 0.609375 0  0.25 0.609375 0  0.28125 0.609375 0  0.3125 0.609375 0  0.34375 0.609375 0  0.375 0.609375 0  0.40625 0.609375 0  0.4375 0.609375 0  0.46875 0.609375 0  0.5 0.609375 0  0.53125 0.609375 0  0.5625 0.609375 0  0.59375 0.609375 0  0.625 0.609375 0  0.65625 0.609375 0  0.6875 0.609375 0  0.71875 0.609375 0  0.75 0.609375 0  0.78125 0.609375 0  0.8125 0.609375 0  0.84375 0.609375 0  0.875 0.609375 0  0.90625 0.609375 0  0.9375 0.609375 0  0.96875 0.609375 0  1 0.609375 0  0.03125 0.65625 0  0 0.65625 0  0.0625 0.65625 0  0.09375 0.65625 0  0.125 0.65625 0  0.15625 0.65625 0  0.1875 0.65625 0  0.21875 0.65625 0  0.25 0.65625 0  0.28125 0.65625 0  0.3125 0.65625 0  0.34375 0.65625 0  0.375 0.65625 0  0.40625 0.65625 0  0.4375 0.65625 0  0.46875 0.65625 0  0.5 0.65625 0  0.53125 0.65625 0  0.5625 0.65625 0  0.59375 0.65625 0  0.625 0.65625 0  0.65625 0.65625 0  0.6875 0.65625 0  0.71875 0.65625 0  0.75 0.65625 0  0.78125 0.65625 0  0.8125 0.65625 0  0.84375 0.65625 0  0.875 0.65625 0  0.90625 0.65625 0  0.9375 0.65625 0  0.96875 0.65625 0  1 0.65625 0  0.03125 0.703125 0  0 0.703125 0  0.0625 0.703125 0  0.09375 0.703125 0  0.125 0.703125 0  0.15625 0.703125 0  0.1875 0.703125 0  0.21875 0.703125 0  0.25 0.703125 0  0.28125 0.703125 0  0.3125 0.703125 0  0.34375 0.703125 0  0.375 0.703125 0  0.40625 0.703125 0  0.4375 0.703125 0  0.46875 0.703125 0  0.5 0.703125 0  0.53125 0.703125 0  0.5625 0.703125 0  0.59375 0.703125 0  0.625 0.703125 0  0.65625 0.703125 0  0.6875 0.703125 0  0.71875 0.703125 0  0.75 0.703125 0  0.78125 0.703125 0  0.8125 0.703125 0  0.84375 0.703125 0  0.875 0.703125 0  0.90625 0.703125 0  0.9375 0.703125 0  0.96875 0.703125 0  1 0.703125 0  0.03125 0.75 0  0 0.75 0  0.0625 0.75 0  0.09375 0.75 0  0.125 0.75 0  0.15625 0.75 0  0.1875 0.75 0  0.21875 0.75 0  0.25 0.75 0  0.28125 0.75 0  0.3125 0.75 0  0.34375 0.75 0  0.375 0.75 0  0.40625 0.75 0  0.4375 0.75 0  0.46875 0.75 0  0.5 0.75 0  0.53125 0.75 0  0.5625 0.75 0  0.59375 0.75 0  0.625 0.75 0  0.65625 0.75 0  0.6875 0.75 0  0.71875 0.75 0  0.75 0.75 0  0.78125 0.75 0  0.8125 0.75 0  0.84375 0.75 0  0.875 0.75 0  0.90625 0.75 0  0.9375 0.75 0  0.96875 0.75 0  1 0.75 0  0.03125 0.796875 0  0 0.796875 0  0.0625 0.796875 0  0.09375 0.796875 0  0.125 0.796875 0  0.15625 0.796875 0  0.1875 0.796875 0  0.21875 0.796875 0  0.25 0.796875 0  0.28125 0.796875 0  0.3125 0.796875 0  0.34375 0.796875 0  0.375 0.796875 0  0.40625 0.796875 0  0.4375 0.796875 0  0.46875 0.796875 0  0.5 0.796875 0  0.53125 0.796875 0  0.5625 0.796875 0  0.59375 0.796875 0  0.625 0.796875 0  0.65625 0.796875 0  0.6875 0.796875 0  0.71875 0.796875 0  0.75 0.796875 0  0.78125 0.796875 0  0.8125 0.796875 0  0.84375 0.796875 0  0.875 0.796875 0  0.90625 0.796875 0  0.9375 0.796875 0  0.96875 0.796875 0  1 0.796875 0  0.03125 0.84375 0  0 0.84375 0  0.0625 0.84375 0  0.09375 0.84375 0  0.125 0.84375 0  0.15625 0.84375 0  0.1875 0.84375 0  0.21875 0.84375 0  0.25 0.84375 0  0.28125 0.84375 0  0.3125 0.84375 0  0.34375 0.84375 0  0.375 0.84375 0  0.40625 0.84375 0  0.4375 0.84375 0  0.46875 0.84375 0  0.5 0.84375 0  0.53125 0.84375 0  0.5625 0.84375 0  0.59375 0.84375 0  0.625 0.84375 0  0.65625 0.84375 0  0.6875 0.84375 0  0.71875 0.84375 0  0.75 0.84375 0  0.78125 0.84375 0  0.8125 0.84375 0  0.84375 0.84375 0  0.875 0.84375 0  0.90625 0.84375 0  0.9375 0.84375 0  0.96875 0.84375 0  1 0.84375 0  0.03125 0.890625 0  0 0.890625 0  0.0625 0.890625 0  0.09375 0.890625 0  0.125 0.890625 0  0.15625 0.890625 0  0.1875 0.890625 0  0.21875 0.890625 0  0.25 0.890625 0  0.28125 0.890625 0  0.3125 0.890625 0  0.34375 0.890625 0  0.375 0.890625 0  0.40625 0.890625 0  0.4375 0.890625 0  0.46875 0.890625 0  0.5 0.890625 0  0.53125 0.890625 0  0.5625 0.890625 0  0.59375 0.890625 0  0.625 0.890625 0  0.65625 0.890625 0  0.6875 0.890625 0  0.71875 0.890625 0  0.75 0.890625 0  0.78125 0.890625 0  0.8125 0.890625 0  0.84375 0.890625 0  0.875 0.890625 0  0.90625 0.890625 0  0.9375 0.890625 0  0.96875 0.890625 0  1 0.890625 0  0.03125 0.9375 0  0 0.9375 0  0.0625 0.9375 0  0.09375 0.9375 0  0.125 0.9375 0  0.15625 0.9375 0  0.1875 0.9375 0  0.21875 0.9375 0  0.25 0.9375 0  0.28125 0.9375 0  0.3125 0.9375 0  0.34375 0.9375 0  0.375 0.9375 0  0.40625 0.9375 0  0.4375 0.9375 0  0.46875 0.9375 0  0.5 0.9375 0  0.53125 0.9375 0  0.5625 0.9375 0  0.59375 0.9375 0  0.625 0.9375 0  0.65625 0.9375 0  0.6875 0.9375 0  0.71875 0.9375 0  0.75 0.9375 0  0.78125 0.9375 0  0.8125 0.9375 0  0.84375 0.9375 0  0.875 0.9375 0  0.90625 0.9375 0  0.9375 0.9375 0  0.96875 0.9375 0  1 0.9375 0  0.03125 0.984375 0  0 0.984375 0  0.0625 0.984375 0  0.09375 0.984375 0  0.125 0.984375 0  0.15625 0.984375 0  0.1875 0.984375 0  0.21875 0.984375 0  0.25 0.984375 0  0.28125 0.984375 0  0.3125 0.984375 0  0.34375 0.984375 0  0.375 0.984375 0  0.40625 0.984375 0  0.4375 0.984375 0  0.46875 0.984375 0  0.5 0.984375 0  0.53125 0.984375 0  0.5625 0.984375 0  0.59375 0.984375 0  0.625 0.984375 0  0.65625 0.984375 0  0.6875 0.984375 0  0.71875 0.984375 0  0.75 0.984375 0  0.78125 0.984375 0  0.8125 0.984375 0  0.84375 0.984375 0  0.875 0.984375 0  0.90625 0.984375 0  0.9375 0.984375 0  0.96875 0.984375 0  1 0.984375 0  0.03125 1.03125 0  0 1.03125 0  0.0625 1.03125 0  0.09375 1.03125 0  0.125 1.03125 0  0.15625 1.03125 0  0.1875 1.03125 0  0.21875 1.03125 0  0.25 1.03125 0  0.28125 1.03125 0  0.3125 1.03125 0  0.34375 1.03125 0  0.375 1.03125 0  0.40625 1.03125 0  0.4375 1.03125 0  0.46875 1.03125 0  0.5 1.03125 0  0.53125 1.03125 0  0.5625 1.03125 0  0.59375 1.03125 0  0.625 1.03125 0  0.65625 1.03125 0  0.6875 1.03125 0  0.71875 1.03125 0  0.75 1.03125 0  0.78125 1.03125 0  0.8125 1.03125 0  0.84375 1.03125 0  0.875 1.03125 0  0.90625 1.03125 0  0.9375 1.03125 0  0.96875 1.03125 0  1 1.03125 0  0.03125 1.078125 0  0 1.078125 0  0.0625 1.078125 0  0.09375 1.078125 0  0.125 1.078125 0  0.15625 1.078125 0  0.1875 1.078125 0  0.21875 1.078125 0  0.25 1.078125 0  0.28125 1.078125 0  0.3125 1.078125 0  0.34375 1.078125 0  0.375 1.078125 0  0.40625 1.078125 0  0.4375 1.078125 0  0.46875 1.078125 0  0.5 1.078125 0  0.53125 1.078125 0  0.5625 1.078125 0  0.59375 1.078125 0  0.625 1.078125 0  0.65625 1.078125 0  0.6875 1.078125 0  0.71875 1.078125 0  0.75 1.078125 0  0.78125 1.078125 0  0.8125 1.078125 0  0.84375 1.078125 0  0.875 1.078125 0  0.90625 1.078125 0  0.9375 1.078125 0  0.96875 1.078125 0  1 1.078125 0  0.03125 1.125 0  0 1.125 0  0.0625 1.125 0  0.09375 1.125 0  0.125 1.125 0  0.15625 1.125 0  0.1875 1.125 0  0.21875 1.125 0  0.25 1.125 0  0.28125 1.125 0  0.3125 1.125 0  0.34375 1.125 0  0.375 1.125 0  0.40625 1.125 0  0.4375 1.125 0  0.46875 1.125 0  0.5 1.125 0  0.53125 1.125 0  0.5625 1.125 0  0.59375 1.125 0  0.625 1.125 0  0.65625 1.125 0  0.6875 1.125 0  0.71875 1.125 0  0.75 1.125 0  0.78125 1.125 0  0.8125 1.125 0  0.84375 1.125 0  0.875 1.125 0  0.90625 1.125 0  0.9375 1.125 0  0.96875 1.125 0  1 1.125 0  0.03125 1.171875 0  0 1.171875 0  0.0625 1.171875 0  0.09375 1.171875 0  0.125 1.171875 0  0.15625 1.171875 0  0.1875 1.171875 0  0.21875 1.171875 0  0.25 1.171875 0  0.28125 1.171875 0  0.3125 1.171875 0  0.34375 1.171875 0  0.375 1.171875 0  0.40625 1.171875 0  0.4375 1.171875 0  0.46875 1.171875 0  0.5 1.171875 0  0.53125 1.171875 0  0.5625 1.171875 0  0.59375 1.171875 0  0.625 1.171875 0  0.65625 1.171875 0  0.6875 1.171875 0  0.71875 1.171875 0  0.75 1.171875 0  0.78125 1.171875 0  0.8125 1.171875 0  0.84375 1.171875 0  0.875 1.171875 0  0.90625 1.171875 0  0.9375 1.171875 0  0.96875 1.171875 0  1 1.171875 0  0.03125 1.21875 0  0 1.21875 0  0.0625 1.21875 0  0.09375 1.21875 0  0.125 1.21875 0  0.15625 1.21875 0  0.1875 1.21875 0  0.21875 1.21875 0  0.25 1.21875 0  0.28125 1.21875 0  0.3125 1.21875 0  0.34375 1.21875 0  0.375 1.21875 0  0.40625 1.21875 0  0.4375 1.21875 0  0.46875 1.21875 0  0.5 1.21875 0  0.53125 1.21875 0  0.5
[...]
<PointData  Vectors="u"> 
<DataArray  type="Float64"  Name="u"  NumberOfComponents="3" format="ascii">9.9665403586675916e-03 6.4370386766695589e-04 0.0000000000000000e+00  1.1112840637194102e-02 3.0497364522426881e-03 0.0000000000000000e+00  1.2327817513313520e-02 3.3166027896794135e-03 0.0000000000000000e+00  1.0969378904229696e-02 8.4996369862826962e-04 0.0000000000000000e+00  1.0477014107035229e-02 5.4787310728494068e-03 0.0000000000000000e+00  1.1788575771566681e-02 6.0349013322577878e-03 0.0000000000000000e+00  9.3902038131493809e-03 7.6372259038514443e-03 0.0000000000000000e+00  1.0573232422250931e-02 8.4195651274180175e-03 0.0000000000000000e+00  8.0081541608633487e-03 9.4300243441449733e-03 0.0000000000000000e+00  9.0403347985706824e-03 1.0381351095489060e-02 0.0000000000000000e+00  6.4225640471861616e-03 1.0809967727755531e-02 0.0000000000000000e+00  7.3121905768016391e-03 1.1876200914479326e-02 0.0000000000000000e+00  4.7125115937396425e-03 1.1747716392970113e-02 0.0000000000000000e+00  5.4710575287138623e-03 1.2879533957127536e-02 0.0000000000000000e+00  2.9487071453688212e-03 1.2229745474603959e-02 0.0000000000000000e+00  3.5881952217961038e-03 1.3382944555427597e-02 0.0000000000000000e+00  1.1944474664561343e-03 1.2257650043203687e-02 0.0000000000000000e+00  1.7269892956724227e-03 1.3392905192130053e-02 0.0000000000000000e+00  -4.9397331800131027e-04 1.1846852556878444e-02 0.0000000000000000e+00  -5.6586490322573576e-05 1.2929516346134488e-02 0.0000000000000000e+00  -2.0670507069231897e-03 1.1025096686259240e-02 0.0000000000000000e+00  -1.7134150992441253e-03 1.2024945231057014e-02 0.0000000000000000e+00  -3.4818370259511893e-03 9.8307526588925116e-03 0.0000000000000000e+00  -3.2011760036258926e-03 1.0721832439323221e-02 0.0000000000000000e+00  -4.7017839119000314e-03 8.3111989143755272e-03 0.0000000000000000e+00  -4.4839163048770031e-03 9.0716167507010337e-03 0.0000000000000000e+00  -5.6965228579308668e-03 6.5211907445199965e-03 0.0000000000000000e+00  -5.5319802964482849e-03 7.1330053214086458e-03 0.0000000000000000e+00  -6.4417525628121843e-03 4.5213880256133607e-03 0.0000000000000000e+00  -6.3217212821365743e-03 4.9704621141583218e-03 0.0000000000000000e+00  -6.9191101586715048e-03 2.3769127204479510e-03 0.0000000000000000e+00  -6.8354911176217925e-03 2.6528710660321340e-03 0.0000000000000000e+00  -7.1161072002024666e-03 1.5604051922991777e-04 0.0000000000000000e+00  -7.0614493950062118e-03 2.5221510153079920e-04 0.0000000000000000e+00  -7.0260971021990056e-03 -2.0711005180463543e-03 0.0000000000000000e+00  -6.9936534380441945e-03 -2.1576210638972540e-03 0.0000000000000000e+00  -6.6483392609434722e-03 -4.2337745738675854e-03 0.0000000000000000e+00  -6.6320609192918809e-03 -4.5020860831252148e-03 0.0000000000000000e+00  -5.9880874383695538e-03 -6.2619422878117895e-03 0.0000000000000000e+00  -5.9827303183881001e-03 -6.7071722778776210e-03 0.0000000000000000e+00  -5.0567550557556462e-03 -8.0875970072935843e-03 0.0000000000000000e+00  -5.0579622112820431e-03 -8.7007387955689557e-03 0.0000000000000000e+00  -3.8721241417857236e-03 -9.6462340021952891e-03 0.0000000000000000e+00  -3.8766571489615145e-03 -1.0413905080676423e-02 0.0000000000000000e+00  -2.4586208746740783e-03 -1.0878416502050533e-02 0.0000000000000000e+00  -2.4645819693278697e-03 -1.1782621940630515e-02 0.0000000000000000e+00  -8.4755572539878428e-04 -1.1731518366771734e-02 0.0000000000000000e+00  -8.5478070557759524e-04 -1.2749364560513260e-02 0.0000000000000000e+00  9.2259487824450489e-04 -1.2161572329697504e-02 0.0000000000000000e+00  9.1215788927149740e-04 -1.3265013937319289e-02 0.0000000000000000e+00  2.8059573401333321e-03 -1.2135265357221706e-02 0.0000000000000000e+00  2.7877004341967126e-03 -1.3290828929313072e-02 0.0000000000000000e+00  4.7488987814553515e-03 -1.1631974796942288e-02 0.0000000000000000e+00  4.7151231163444383e-03 -1.2800520611579868e-02 0.0000000000000000e+00  6.6890719581636296e-03 -1.0645862103513311e-02 0.0000000000000000e+00  6.6286860024710485e-03 -1.1782295147866958e-02 0.0000000000000000e+00  8.5514615727491517e-03 -9.1880424237262923e-03 0.0000000000000000e+00  8.4508869781046384e-03 -1.0240918000849782e-02 0.0000000000000000e+00  1.0231047952975520e-02 -7.2896897107653704e-03 0.0000000000000000e+00  1.0079456230576942e-02 -8.2002948676848479e-03 0.0000000000000000e+00  1.1519204965936778e-02 -5.0118428344391314e-03 0.0000000000000000e+00  1.1330277533755449e-02 -5.7110451309272418e-03 0.0000000000000000e+00  1.1858343679354653e-02 -2.5084614386624614e-03 0.0000000000000000e+00  1.1720820197247232e-02 -2.8980563887168703e-03 0.0000000000000000e+00  1.0367137373511217e-02 -2.8234356076193022e-04 0.0000000000000000e+00  1.0063166743359572e-02 -3.7993355810825600e-04 0.0000000000000000e+00  1.4030125384329189e-02 4.0657214176606730e-03 0.0000000000000000e+00  1.2626199649257583e-02 1.2860378941854712e-03 0.0000000000000000e+00  1.3369005390913326e-02 7.3985356888567923e-03 0.0000000000000000e+00  1.2065408758369506e-02 1.0279289048205039e-02 0.0000000000000000e+00  1.0416506147018608e-02 1.2603867797721819e-02 0.0000000000000000e+00  8.5539895493643523e-03 1.4338920576396895e-02 0.0000000000000000e+00  6.5709596881122464e-03 1.5471643918442558e-02 0.0000000000000000e+00  4.5455572158857290e-03 1.6005132942560441e-02 0.0000000000000000e+00  2.5461797216280680e-03 1.5957107087140918e-02 0.0000000000000000e+00  6.3314730791499681e-04 1.5358451546476760e-02 0.0000000000000000e+00  -1.1413505679542869e-03 1.4251709746470487e-02 0.0000000000000000e+00  -2.7324049851928708e-03 1.2689373341809411e-02 0.0000000000000000e+00  -4.1024422743890102e-03 1.0732340936416904e-02 0.0000000000000000e+00  -5.2204224882196259e-03 8.4483121395257463e-03 0.0000000000000000e+00  -6.0619409417946510e-03 5.9104706351413849e-03 0.0000000000000000e+00  -6.6086181236855203e-03 3.1961276630379717e-03 0.0000000000000000e+00  -6.8482246929376942e-03 3.8563934925507404e-04 0.0000000000000000e+00  -6.7743761379863944e-03 -2.4387558181357184e-03 0.0000000000000000e+00  -6.3868307684003360e-03 -5.1939247328126317e-03 0.0000000000000000e+00  -5.6914397829859117e-03 -7.7969857326790626e-03 0.0000000000000000e+00  -4.7006374932575959e-03 -1.0166415353099739e-02 0.0000000000000000e+00  -3.4336524868890652e-03 -1.2223388762348936e-02 0.0000000000000000e+00  -1.9171933747937351e-03 -1.3893198353373449e-02 0.0000000000000000e+00  -1.8574421778294755e-04 -1.5106945203137786e-02 0.0000000000000000e+00  1.7176934231712055e-03 -1.5803347541274600e-02 0.0000000000000000e+00  3.7413267505101112e-03 -1.5930773198706144e-02 0.0000000000000000e+00  5.8238773967118412e-03 -1.5449300868969666e-02 0.0000000000000000e+00  7.8938809744656443e-03 -1.4332836088730313e-02 0.0000000000000000e+00  9.8662076032501114e-03 -1.2571169409200885e-02 0.0000000000000000e+00  1.1626997474621299e-02 -1.0172737919050755e-02 0.0000000000000000e+00  1.2963744373943493e-02 -7.1738038982169785e-03 0.0000000000000000e+00  1.3284539142820408e-02 -3.7081279988430580e-03 0.0000000000000000e+00  1.1090558510630136e-02 -7.8408513143272366e-04 0.0000000000000000e+00  1.6639618987601711e-02 4.9803613919044993e-03 0.0000000000000000e+00  1.5010080525518122e-02 1.7267757410549510e-03 0.0000000000000000e+00  1.5883323504163042e-02 9.0408300733669528e-03 0.0000000000000000e+00  1.4442546596845811e-02 1.2511664987127087e-02 0.0000000000000000e+00  1.2628949219633631e-02 1.5268078672297873e-02 0.0000000000000000e+00  1.0582006651235433e-02 1.7287027723033331e-02 0.0000000000000000e+00  8.4037635463516148e-03 1.8569724153097943e-02 0.0000000000000000e+00  6.1811230934926522e-03 1.9133751621607922e-02 0.0000000000000000e+00  3.9904855613936922e-03 1.9010988362422789e-02 0.0000000000000000e+00  1.8978604068919237e-03 1.8245990421424205e-02 0.0000000000000000e+00  -3.9515903803551284e-05 1.6894236658597152e-02 0.0000000000000000e+00  -1.7736687839880819e-03 1.5020472088976906e-02 0.0000000000000000e+00  -3.2642342853193948e-03 1.2697000477056266e-02 0.0000000000000000e+00  -4.4788441741609132e-03 1.0002301738196500e-02 0.0000000000000000e+00  -5.3916649543617858e-03 7.0196240919167454e-03 0.0000000000000000e+00  -5.9837975180986975e-03 3.8359918899530756e-03 0.0000000000000000e+00  -6.2421540800546536e-03 5.4110735724975819e-04 0.0000000000000000e+00  -6.1600249482685662e-03 -2.7733691612205676e-03 0.0000000000000000e+00  -5.7364812954566694e-03 -6.0147614994486070e-03 0.0000000000000000e+00  -4.9771485884283501e-03 -9.0900865826696424e-03 0.0000000000000000e+00  -3.8940871898983432e-03 -1.1907092918884843e-02 0.0000000000000000e+00  -2.5068738961288614e-03 -1.4375251995652479e-02 0.0000000000000000e+00  -8.4283464320339331e-04 -1.6407138411250546e-02 0.0000000000000000e+00  1.0617170005298268e-03 -1.7919916818894998e-02 0.0000000000000000e+00  3.1611357455270375e-03 -1.8837198659249627e-02 0.0000000000000000e+00  5.3992335309374596e-03 -1.9091040400439793e-02 0.0000000000000000e+00  7.7090072387492404e-03 -1.8624174376320937e-02 0.0000000000000000e+00  1.0011029810594610e-02 -1.7392271784429796e-02 0.0000000000000000e+00  1.2209761928736278e-02 -1.5366375533126333e-02 0.0000000000000000e+00  1.4174163716498893e-02 -1.2536437170932923e-02 0.0000000000000000e+00  1.5649211126396802e-02 -8.9241940865061962e-03 0.0000000000000000e+00  1.5895537989817139e-02 -4.6831154355987826e-03 0.0000000000000000e+00  1.3063715262181745e-02 -1.2395045911431654e-03 0.0000000000000000e+00  2.0178022986721666e-02 6.0115981226289503e-03 0.0000000000000000e+00  1.8154129561445916e-02 2.1927076877469569e-03 0.0000000000000000e+00  1.9341913689790373e-02 1.0886992948089038e-02 0.0000000000000000e+00  1.7742034059266287e-02 1.5014373402235832e-02 0.0000000000000000e+00  1.5733257327572723e-02 1.8247640344774302e-02 0.0000000000000000e+00  1.3469222594474686e-02 2.0575984578576186e-02 0.0000000000000000e+00  1.1063603382937319e-02 2.2017005149799172e-02 0.0000000000000000e+00  8.6141353620105016e-03 2.2605451873220456e-02 0.0000000000000000e+00  6.2050861029897784e-03 2.2390162989359818e-02 0.0000000000000000e+00  3.9097716679259778e-03 2.1431987895529969e-02 0.0000000000000000e+00  1.7896381822592739e-03 1.9801741522507812e-02 0.0000000000000000e+00  -1.0324645371102796e-04 1.7578344991423828e-02 0.0000000000000000e+00  -1.7270593443977965e-03 1.4847139850949096e-02 0.0000000000000000e+00  -3.0474536836296940e-03 1.1698425179646399e-02 0.0000000000000000e+00  -4.0385512366473255e-03 8.2263687416981660e-03 0.0000000000000000e+00  -4.6804070900031327e-03 4.5280094207520291e-03 0.0000000000000000e+00  -4.9601393143224679e-03 7.0272184337634490e-04 0.0000000000000000e+00  -4.8700380389492546e-03 -3.1484611164754130e-03 0.0000000000000000e+00  -4.4090139793442305e-03 -6.9231023287462754e-03 0.0000000000000000e+00  -3.5814949947978896e-03 -1.0517994911294647e-02 0.0000000000000000e+00  -2.3991844252926275e-03 -1.3829553721306726e-02 0.0000000000000000e+00  -8.8078648556102449e-04 -1.6754731888256772e-02 0.0000000000000000e+00  9.4595922931189587e-04 -1.9191948826667901e-02 0.0000000000000000e+00  3.0440798711984761e-03 -2.1042564043000495e-02 0.0000000000000000e+00  5.3653153312150717e-03 -2.2212572213668107e-02 0.0000000000000000e+00  7.8497615927316106e-03 -2.2614749344003489e-02 0.0000000000000000e+00  1.0424117078118427e-02 -2.2171063006627311e-02 0.0000000000000000e+00  1.3000711251343442e-02 -2.0815362095925889e-02 0.0000000000000000e+00  1.5471831059877771e-02 -1.8496462195178767e-02 0.0000000000000000e+00  1.7686183990779855e-02 -1.5183001875548071e-02 0.0000000000000000e+00  1.9335972764743272e-02 -1.0880902081774939e-02 0.0000000000000000e+00  1.9498215803858177e-02 -5.7659267228777587e-03 0.0000000000000000e+00  1.5852059381602175e-02 -1.7013647336293462e-03 0.0000000000000000e+00  2.4707463488201173e-02 7.1628943938916601e-03 0.0000000000000000e+00  2.2111235380612673e-02 2.7065652017534141e-03 0.0000000000000000e+00  2.3808616678887399e-02 1.2941411437810996e-02 0.0000000000000000e+00  2.2036715645079898e-02 1.7790370350574080e-02 0.0000000000000000e+00  1.9816481309253276e-02 2.1542406716946978e-02 0.0000000000000000e+00  1.7321692135690282e-02 2.4201115342290622e-02 0.0000000000000000e+00  1.4680034381951659e-02 2.5803683384106841e-02 0.0000000000000000e+00  1.1999298879534577e-02 2.6405377596166315e-02 0.0000000000000000e+00  9.3728023634785367e-03 2.6075421253352941e-02 0.0000000000000000e+00  6.8789942726304306e-03 2.4894039961562101e-02 0.0000000000000000e+00  4.5842033518398396e-03 2.2950127975197757e-02 0.0000000000000000e+00  2.5416626536202518e-03 2.0338948853063334e-02 0.0000000000000000e+00  7.9522265845365407e-04 1.7160476360730391e-02 0.0000000000000000e+00  -6.2188386238097191e-04 1.3517896018983811e-02 0.0000000000000000e+00  -1.6829772218282225e-03 9.5167262429283698e-03 0.0000000000000000e+00  -2.3697637253341204e-03 5.2641924772463137e-03 0.0000000000000000e+00  -2.6684299344752636e-03 8.6895149122010514e-04 0.0000000000000000e+00  -2.5721296004141353e-03 -3.5588689048203660e-03 0.0000000000000000e+00  -2.0779880971488474e-03 -7.9076908360251295e-03 0.0000000000000000e+00  -1.1900211273512232e-03 -1.2064226674988606e-02 0.0000000000000000e+00  8.2577670921474429e-05 -1.5913678913885072e-02 0.0000000000000000e+00  1.7222025382860598e-03 -1.9339853679329059e-02 0.0000000000000000e+00  3.7032141169625406e-03 -2.2225962038347029e-02 0.0000000000000000e+00  5.9887901159591242e-03 -2.4455640914021748e-02 0.0000000000000000e+00  8.5304818425780918e-03 -2.5914673890955749e-02 0.0000000000000000e+00  1.1265464308822068e-02 -2.6493179772888238e-02 0.0000000000000000e+00  1.4115848408805006e-02 -2.6088371794996009e-02 0.0000000000000000e+00  1.6985752811162446e-02 -2.4607862081764988e-02 0.0000000000000000e+00  1.9755277093175382e-02 -2.1973673234977391e-02 0.0000000000000000e+00  2.2249776855143111e-02 -1.8128848541196854e-02 0.0000000000000000e+00  2.4097917874835090e-02 -1.3060153203708709e-02 0.0000000000000000e+00  2.4148647327752199e-02 -6.9664867515403881e-03 0.0000000000000000e+00  1.9466845428803628e-02 -2.1889978109165746e-03 0.0000000000000000e+00  3.0340341003000256e-02 8.4402721269044804e-03 0.0000000000000000e+00  2.6969328011692835e-02 3.2861233564333288e-03 0.0000000000000000e+00  2.9402900202870199e-02 1.5211063055927303e-02 0.0000000000000000e+00  2.7456950278997014e-02 2.0844702563428585e-02 0.0000000000000000e+00  2.5024221557070393e-02 2.5152085695816215e-02 0.0000000000000000e+00  2.2305419961803682e-02 2.8154928500912703e-02 0.0000000000000000e+00  1.9442517567946609e-02 2.9914286009241911e-02 0.0000000000000000e+00  1.6554017014519282e-02 3.0510496971685692e-02 0.0000000000000000e+00  1.3739656300639357e-02 3.0037355588470056e-02 0.0000000000000000e+00  1.1082678672926964e-02 2.8598379884826431e-02 0.0000000000000000e+00  8.6501739407172252e-03 2.6303597122540514e-02 0.0000000000000000e+00  6.4961866676814788e-03 2.3267121286704585e-02 0.0000000000000000e+00  4.6617504911518606e-03 1.9605043372862827e-02 0.0000000000000000e+00  3.1793593532241380e-03 1.5434327619667593e-02 0.0000000000000000e+00  2.0717304431577010e-03 1.0871887474084768e-02 0.0000000000000000e+00  1.3570015619393588e-03 6.0346794414192773e-03 0.0000000000000000e+00  1.0459730392048672e-03 1.0397708256899970e-03 0.0000000000000000e+00  1.1471759288690046e-03 -3.9948270524469524e-03 0.0000000000000000e+00  1.6627170124446395e-03 -8.9494742134252937e-03 0.0000000000000000e+00  2.5922949760014747e-03 -1.3701973850785754e-02 0.0000000000000000e+00  3.9284341578380419e-03 -1.8126828758137013e-02 0.0000000000000000e+00  5.6584328210850052e-03 -2.2094896404649185e-02 0.0000000000000000e+00  7.7596457079294329e-03 -2.5473338889761058e-02 0.0000000000000000e+00  1.0199416369524037e-02 -2.8126448409755395e-02 0.0000000000000000e+00  1.2931012633033662e-02 -2.9917007554220422e-02 0.0000000000000000e+00  1.5892310719064200e-02 -3.0708662196451336e-02 0.0000000000000000e+00  1.9002692602031225e-02 -3.0369043334599593e-02 0.0000000000000000e+00  2.2160362842205586e-02 -2.8773856215587448e-02 0.0000000000000000e+00  2.5233446227062795e-02 -2.5812141704549187e-02 0.0000000000000000e+00  2.8021893806033399e-02 -2.1394976868919710e-02 0.0000000000000000e+00  3.0078325076400531e-02 -1.5484319436360411e-02 0.0000000000000000e+00  2.9971257937219803e-02 -8.3019519309181587e-03 0.0000000000000000e+00  2.3983064670158996e-02 -2.7270276880609914e-03 0.0000000000000000e+00  3.7228743055156978e-02 9.8439048772870057e-03 0.0000000000000000e+00  3.2844738608392918e-02 3.9457171400209103e-03 0.0000000000000000e+00  3.6288113689052173e-02 1.7691603214989964e-02 0.0000000000000000e+00  3.4178458037998856e-02 2.4164340964928522e-02 0.0000000000000000e+00  3.1549934417338721e-02 2.9051541787051320e-02 0.0000000000000000e+00  2.8636164305867035e-02 3.2398541235660834e-02 0.0000000000000000e+00  2.5594436128916129e-02 3.4296384514503751e-02 0.0000000000000000e+00  2.2552238489596484e-02 3.4856498872281517e-02 0.0000000000000000e+00  1.9613886543902229e-02 3.4202781403783945e-02 0.0000000000000000e+00  1.6863229706140195e-02 3.2466692400406748e-02 0.0000000000000000e+00  1.4365599417181688e-02 2.9783141093808117e-02 0.0000000000000000e+00  1.2170228558907051e-02 2.6287537949651496e-02 0.0000000000000000e+00  1.0313627570221568e-02 2.2113647809888237e-02 0.0000000000000000e+00  8.8213411129659525e-03 1.7392390347816967e-02 0.0000000000000000e+00  7.7123413473870212e-03 1.2251685760588616e-02 0.0000000000000000e+00  6.9986572214274442e-03 6.8166672970295340e-03 0.0000000000000000e+00  6.6906061443331383e-03 1.2111159737715005e-03 0.0000000000000000e+00  6.7936551067675158e-03 -4.4414433413661591e-03 0.0000000000000000e+00  7.3134988769663544e-03 -1.0015481362483888e-02 0.0000000000000000e+00  8.2508461021714614e-03 -1.5382029036685656e-02 0.0000000000000000e+00  9.6051706998027207e-03 -2.0406605985105929e-02 0.0000000000000000e+00  1.1368606975124967e-02 -2.4948006871570415e-02 0.0000000000000000e+00  1.3527035048556431e-02 -2.8857470867158369e-02 0.0000000000000000e+00  1.6054425927934525e-02 -3.1978598063950016e-02 0.0000000000000000e+00  1.8911276242142051e-02 -3.4148592003459301e-02 0.0000000000000000e+00  2.2039971162757067e-02 -3.5200333156577675e-02 0.0000000000000000e+00  2.5361870899177220e-02 -3.4966135862316172e-02 0.0000000000000000e+00  2.8772477341679491e-02 -3.3282586762046033e-02 0.0000000000000000e+00  3.2130077086525030e-02 -2.9997450088515225e-02 0.0000000000000000e+00  3.5207516281501809e-02 -2.4980886962296923e-02 0.0000000000000000e+00  3.7467731041659243e-02 -1.8161556330295203e-02 0.0000000000000000e+00  3.7137053627693324e-02 -9.7822727077001986e-03 0.0000000000000000e+00  2.9515648137896113e-02 -3.3358908624916248e-03 0.0000000000000000e+00  4.5557487013352126e-02 1.1366055933807547e-02 0.0000000000000000e+00  3.9876533489068680e-02 4.6975790552797655e-03 0.0000000000000000e+00  4.4662828924318727e-02 2.0362623370650482e-02 0.0000000000000000e+00  4.2414408915193789e-02 2.7711424508330480e-02 0.0000000000000000e+00  3.9627306300346776e-02 3.3182041188112479e-02 0.0000000000000000e+00  3.6574631862966452e-02 3.6851292427840590e-02 0.0000000000000000e+00  3.3429089155619443e-02 3.8848859209088468e-02 0.0000000000000000e+00  3.0324654687892118e-02 3.9325259680782786e-02 0.0000000000000000e+00  2.7366161144398663e-02 3.8441734703240582e-02 0.0000000000000000e+00  2.4633231800488944e-02 3.6363345352309721e-02 0.0000000000000000e+00  2.2183527634209058e-02 3.3254191703716456e-02 0.0000000000000000e+00  2.0056543218509325e-02 2.9273505354172825e-02 0.0000000000000000e+00  1.8277752863946940e-02 2.4573752211395343e-02 0.0000000000000000e+00  1.6862591880240620e-02 1.9299488174079643e-02 0.0000000000000000e+00  1.5819846828522718e-02 1.3587878166388826e-02 0.0000000000000000e+00  1.5155169861844285e-02 7.5699420358815387e-03 0.0000000000000000e+00  1.4872562627960398e-02 1.3725688657699796e-03 0.0000000000000000e+00  1.4977396043286666e-02 -4