<?xml version="1.0"?>
<VTKFile type="UnstructuredGrid"  version="0.1"  >
<UnstructuredGrid>
<Piece  NumberOfPoints="825" NumberOfCells="1536">
<Points>
<DataArray  type="Float64"  NumberOfComponents="3"  format="ascii">-1.045395329444947e-21 0.5 0  0.06249999998049899 0.5000000001814097 0  0.06249999888929974 0.5625000011008481 0  -2.490906392770683e-09 0.5625000000640969 0  0.1249999998597301 0.5000000001006735 0  0.1249999993252838 0.5625000009627527 0  0.1874999995137369 0.4999999996906327 0  0.1874999992095095 0.5625000003724772 0  0.2499999989743225 0.4999999991210554 0  0.2499999987571361 0.5624999996041306 0  0.3124999982351745 0.4999999983967475 0  0.3124999980321524 0.5624999985984632 0  0.3749999967607321 0.4999999969263687 0  0.3749999969683265 0.562499997365476 0  0.4374999952730531 0.4999999957251604 0  0.4374999958166145 0.5624999962851688 0  0.4999999939179067 0.4999999947198377 0  0.4999999947722786 0.562499995271269 0  0.5624999925531557 0.499999993331807 0  0.5624999939165881 0.5624999944624332 0  0.6249999925581495 0.499999993519193 0  0.6249999935723966 0.5624999944357114 0  0.6874999932876807 0.4999999943305916 0  0.6874999937222647 0.5624999946031201 0  0.749999993230357 0.4999999935774487 0  0.7499999939270217 0.5624999945170349 0  0.8124999939507905 0.4999999941095907 0  0.8124999943753071 0.5624999948164665 0  0.8749999950759659 0.4999999948419332 0  0.8749999950124703 0.5624999950104216 0  0.9374999951858393 0.4999999939178734 0  0.9374999955155113 0.5624999948893021 0  0.9999999960746078 0.4999999944552401 0  0.9999999961300979 0.5624999951454007 0  1.062499997168218 0.499999995067873 0  1.062499996802095 0.5624999952593325 0  1.124999997128568 0.4999999940864917 0  1.124999997250137 0.5624999950563921 0  1.187499997779572 0.4999999944596964 0  1.187499997723746 0.5624999952249605 0  1.249999998680158 0.4999999950791273 0  1.249999998201311 0.5624999953129985 0  1.31249999841148 0.499999994165917 0  1.312499998409334 0.5624999951296625 0  1.374999998712736 0.4999999945298731 0  1.374999998581507 0.5624999953099548 0  1.437499999102879 0.4999999950250613 0  1.437499998699817 0.5624999954710027 0  1.499999998622937 0.4999999945408605 0  1.499999998544004 0.5624999956244519 0  1.562499998620916 0.4999999955815705 0  1.562499998384256 0.5624999963293467 0  1.6249999988792 0.4999999969708729 0  1.624999998298505 0.5624999971534905 0  1.687499998849177 0.499999997551104 0  1.687499998139246 0.5624999979075472 0  1.749999999154919 0.4999999985263731 0  1.749999998031873 0.5624999988173718 0  1.812499999552096 0.4999999992565326 0  1.812499997954991 0.5624999996722477 0  1.874999999730811 0.4999999995020377 0  1.874999997784708 0.5625000005947539 0  1.937499999925975 0.4999999998634901 0  1.937499997806686 0.5625000019243123 0  2 0.5 0  2.000000000153364 0.5625000032800203 0  0.06249999809025335 0.6250000011932353 0  -2.854352751790594e-09 0.6250000005061805 0  0.1249999986182131 0.6250000011441471 0  0.1874999986990717 0.625000000629257 0  0.2499999984249283 0.6249999998593958 0  0.3124999978775299 0.6249999989087994 0  0.3749999971032751 0.624999997868688 0  0.4374999962277381 0.6249999968821739 0  0.499999995395945 0.6249999960160593 0  0.5624999947001931 0.6249999953925777 0  0.6249999942777669 0.6249999951406269 0  0.6874999941882454 0.6249999951055039 0  0.7499999943070431 0.6249999951367363 0  0.8124999945956792 0.6249999952631689 0  0.8749999950338813 0.6249999953850143 0  0.93749999550726 0.6249999954559504 0  0.9999999960099225 0.6249999955641932 0  1.062499996542725 0.6249999956356213 0  1.124999997012309 0.6249999956417478 0  1.187499997425245 0.624999995688746 0  1.249999997796357 0.6249999957268372 0  1.312499998047008 0.6249999957372554 0  1.374999998186333 0.6249999958264528 0  1.4374999982274 0.6249999959858418 0  1.499999998121477 0.6249999962622755 0  1.562499997927997 0.6249999967639465 0  1.624999997711797 0.6249999974269986 0  1.687499997462071 0.624999998195074 0  1.749999997211487 0.6249999990894523 0  1.812499996993779 0.6250000000991249 0  1.874999996874537 0.6250000012780293 0  1.937499997195676 0.625000002579613 0  1.999999998385767 0.6250000030339959 0  0.06249999766169605 0.687500000941168 0  -2.86047812394159e-09 0.6875000004969039 0  0.1249999980606216 0.6875000009350839 0  0.1874999981917595 0.687500000539936 0  0.2499999980461681 0.6874999998843908 0  0.3124999976645127 0.6874999990701378 0  0.3749999971032659 0.6874999981921366 0  0.4374999964477819 0.6874999973471411 0  0.4999999957945309 0.6874999966157022 0  0.5624999952298882 0.6874999960754384 0  0.6249999948397174 0.68749999576829 0  0.6874999946684759 0.6874999956457711 0  0.7499999946901508 0.6874999956356885 0  0.8124999948709378 0.6874999956955874 0  0.8749999951758223 0.6874999957796213 0  0.937499995551563 0.6874999958609594 0  0.9999999959671295 0.6874999959408544 0  1.06249999639851 0.6874999960037328 0  1.124999996805023 0.6874999960443616 0  1.187499997166554 0.6874999960832241 0  1.249999997469951 0.6874999961231267 0  1.31249999768525 0.6874999961733602 0  1.374999997799409 0.6874999962688205 0  1.437499997807837 0.6874999964383436 0  1.499999997704274 0.6874999967194912 0  1.562499997513495 0.6874999971505614 0  1.624999997271526 0.6874999977300233 0  1.6874999970036 0.6874999984434856 0  1.749999996747739 0.6874999992859986 0  1.812499996561785 0.6875000002429138 0  1.874999996545674 0.6875000012617583 0  1.937499996842449 0.6875000021276284 0  1.999999997337783 0.6875000024030579 0  0.06249999741951142 0.7500000005548784 0  -2.843731988508825e-09 0.7500000002618631 0  0.1249999976678385 0.7500000005623182 0  0.1874999977753969 0.7500000002741037 0  0.2499999976955868 0.7499999997582917 0  0.3124999974354847 0.7499999990988482 0  0.3749999970326284 0.7499999983793166 0  0.4374999965456766 0.7499999976786206 0  0.4999999960433404 0.7499999970651879 0  0.5624999955939215 0.7499999965923289 0  0.6249999952582097 0.7499999962833395 0  0.687499995072413 0.7499999961206316 0  0.7499999950388534 0.7499999960654641 0  0.8124999951405383 0.749999996079643 0  0.8749999953504582 0.7499999961297351 0  0.9374999956350617 0.7499999961928919 0  0.9999999959642711 0.7499999962570991 0  1.062499996310582 0.74999999631365 0  1.124999996645483 0.7499999963606033 0  1.187499996945964 0.7499999964044349 0  1.249999997192749 0.7499999964533892 0  1.312499997366229 0.7499999965209821 0  1.374999997452745 0.7499999966294011 0  1.437499997445934 0.749999996804607 0  1.49999999734773 0.7499999970744781 0  1.562499997174685 0.7499999974616511 0  1.6249999969539 0.7499999979733233 0  1.687499996717598 0.7499999986036376 0  1.74999999650735 0.749999999335636 0  1.812499996376975 0.750000000129328 0  1.874999996386148 0.7500000008954019 0  1.937499996551412 0.7500000014700599 0  1.999999996729968 0.7500000017094945 0  0.06249999725088682 0.8125000001438513 0  -2.869502973265168e-09 0.8124999999441723 0  0.1249999973868916 0.8125000001548174 0  0.1874999974524495 0.8124999999486567 0  0.2499999973995477 0.812499999558171 0  0.3124999972188363 0.8124999990426943 0  0.3749999969295728 0.8124999984686199 0  0.4374999965701663 0.8124999978998149 0  0.4999999961893211 0.81249999739122 0  0.562499995837849 0.8124999969829151 0  0.6249999955606848 0.8124999966933131 0  0.687499995387771 0.812499996517004 0  0.7499999953293355 0.8124999964326122 0  0.8124999953793041 0.8124999964134705 0  0.8749999955206763 0.81249999643447 0  0.9374999957302959 0.8124999964761357 0  0.9999999959834829 0.8124999965254532 0  1.062499996255727 0.8124999965747269 0  1.124999996523207 0.8124999966218781 0  1.187499996764537 0.812499996670323 0  1.249999996961031 0.8124999967277392 0  1.312499997096677 0.8124999968064356 0  1.374999997160143 0.8124999969234977 0  1.437499997146674 0.8124999970989235 0  1.499999997059915 0.8124999973526255 0  1.562499996913651 0.8124999976995188 0  1.624999996730759 0.8124999981444251 0  1.687499996541093 0.8124999986793843 0  1.749999996380244 0.8124999992803144 0  1.812499996285308 0.8124999998997567 0  1.874999996280728 0.8125000004598396 0  1.937499996347894 0.8125000008658514 0  1.999999996400857 0.8125000010760138 0  0.06249999710655674 0.8749999997615948 0  -2.941489604087063e-09 0.8749999996178595 0  0.1249999971717562 0.8749999997742614 0  0.1874999972012033 0.8749999996282186 0  0.2499999971575106 0.8749999993382834 0  0.3124999970269175 0.8749999989439017 0  0.3749999968172837 0.8749999984945552 0  0.4374999965525556 0.8749999980399805 0  0.4999999962663109 0.8749999976234468 0  0.5624999959952404 0.8749999972766002 0  0.6249999957727114 0.8749999970157377 0  0.6874999956228987 0.8749999968413911 0  0.7499999955574961 0.8749999967422197 0  0.8124999955761439 0.8749999967009243 0  0.874999995669054 0.8749999966994076 0  0.9374999958202828 0.8749999967221742 0  0.9999999960107566 0.8749999967578488 0  1.062499996220277 0.8749999967995294 0  1.12499999642886 0.8749999968449347 0  1.187499996617938 0.8749999968962473 0  1.249999996771181 0.8749999969597041 0  1.312499996875315 0.8749999970452985 0  1.374999996921426 0.8749999971661391 0  1.437499996906427 0.8749999973368735 0  1.499999996834356 0.8749999975710978 0  1.562499996717038 0.8749999978778281 0  1.624999996573413 0.8749999982577923 0  1.687499996427674 0.8749999987002542 0  1.74999999630616 0.8749999991799994 0  1.812499996231368 0.8749999996550453 0  1.874999996211485 0.8750000000695556 0  1.93749999622883 0.8750000003712118 0  1.999999996243458 0.8750000005470722 0  0.06249999696743343 0.9374999994303392 0  -3.048623125276178e-09 0.9374999993188164 0  0.1249999969933849 0.9374999994455285 0  0.187499996999128 0.9374999993433026 0  0.2499999969591724 0.9374999991302692 0  0.3124999968611238 0.9374999988322439 0  0.3749999967072044 0.9374999984848353 0  0.4374999965118961 0.9374999981255955 0  0.4999999962978128 0.9374999977881026 0  0.5624999960909307 0.937499997497697 0  0.624999995915795 0.9374999972689618 0  0.6874999957913863 0.93749999710548
[...]
<PointData  Vectors="u"> 
<DataArray  type="Float64"  Name="u"  NumberOfComponents="3" format="ascii">-1.2305274849225232e-27 1.1258169653099930e-25 0.0000000000000000e+00  -8.6438967242748664e-12 -2.0280915455642144e-09 0.0000000000000000e+00  3.6113949326291170e-07 5.8325838526669658e-08 0.0000000000000000e+00  0.0000000000000000e+00 0.0000000000000000e+00 0.0000000000000000e+00  2.9472299307807841e-10 -2.9332078465672722e-09 0.0000000000000000e+00  3.9657164253311887e-07 8.3727899604006527e-08 0.0000000000000000e+00  6.5433565579232613e-10 -4.0959016430309645e-09 0.0000000000000000e+00  3.4489640457193925e-07 8.3519037252345697e-08 0.0000000000000000e+00  9.5129795276652208e-10 -5.7519397471396126e-09 0.0000000000000000e+00  2.8500200684911855e-07 7.3927969087591749e-08 0.0000000000000000e+00  2.1908851758522717e-09 -4.3921162182062357e-09 0.0000000000000000e+00  2.3085819498152990e-07 6.1995064503162532e-08 0.0000000000000000e+00  2.9582772119880058e-09 -4.1000199619979074e-09 0.0000000000000000e+00  1.8535904345400578e-07 5.0360664680330030e-08 0.0000000000000000e+00  3.4357717849484646e-09 -4.4617328441149157e-09 0.0000000000000000e+00  1.4881279893758411e-07 4.0138474379258900e-08 0.0000000000000000e+00  5.3318636507620167e-09 -1.3550903616556492e-09 0.0000000000000000e+00  1.2079332904888742e-07 3.2029712160476649e-08 0.0000000000000000e+00  7.2373975604009036e-09 2.1921683557735513e-09 0.0000000000000000e+00  1.0015919646008263e-07 2.5800133933655194e-08 0.0000000000000000e+00  8.3552462914719930e-09 4.6042401442989635e-09 0.0000000000000000e+00  8.5302520469136873e-08 2.0315722460465188e-08 0.0000000000000000e+00  7.0930146848779149e-09 2.3715947076747268e-09 0.0000000000000000e+00  7.4612239824288776e-08 1.5065670193109054e-08 0.0000000000000000e+00  6.3832427141837557e-09 1.2443270363703400e-09 0.0000000000000000e+00  6.7103408245586827e-08 1.0284391148738787e-08 0.0000000000000000e+00  4.9466808763684107e-09 -1.6314214852462993e-09 0.0000000000000000e+00  6.1820419499084788e-08 6.3807513704010197e-09 0.0000000000000000e+00  5.3390080543852897e-09 -7.7055501305817945e-10 0.0000000000000000e+00  5.8419167236146637e-08 3.3587502123014767e-09 0.0000000000000000e+00  4.8103479266367557e-09 -1.7123958911771834e-09 0.0000000000000000e+00  5.6258043021375760e-08 8.9044795930033669e-10 0.0000000000000000e+00  3.9897016477509328e-09 -3.5351795001637657e-09 0.0000000000000000e+00  5.5050930783501220e-08 -1.2670668108663554e-09 0.0000000000000000e+00  4.9163672128522968e-09 -1.8303882079643863e-09 0.0000000000000000e+00  5.5008241007608857e-08 -3.0821242875810786e-09 0.0000000000000000e+00  5.0640513786910289e-09 -1.7517325840106349e-09 0.0000000000000000e+00  5.6066595735489715e-08 -4.9666341316851897e-09 0.0000000000000000e+00  4.7518470846762510e-09 -2.7311904251792849e-09 0.0000000000000000e+00  5.8485823582692842e-08 -7.2537682643817597e-09 0.0000000000000000e+00  5.8051657648800449e-09 -5.5811827704386269e-10 0.0000000000000000e+00  6.3002883157967883e-08 -1.0020758545060877e-08 0.0000000000000000e+00  5.7051550395006538e-09 -3.7986515641784917e-10 0.0000000000000000e+00  7.0116078818547503e-08 -1.3721324536120231e-08 0.0000000000000000e+00  5.0180165761290268e-09 -1.3787297222026329e-09 0.0000000000000000e+00  8.0696070134799668e-08 -1.8667219000192804e-08 0.0000000000000000e+00  5.7434352328992778e-09 7.9206143001551348e-10 0.0000000000000000e+00  9.6088949335556557e-08 -2.4900749141288979e-08 0.0000000000000000e+00  5.2989179907042852e-09 8.9857850306247032e-10 0.0000000000000000e+00  1.1734494181607401e-07 -3.2812546856498261e-08 0.0000000000000000e+00  4.2700624658380011e-09 -2.7869104682229786e-10 0.0000000000000000e+00  1.4581518150215465e-07 -4.2564874843189592e-08 0.0000000000000000e+00  4.6493454050050292e-09 1.5299684867002938e-09 0.0000000000000000e+00  1.8318961727969383e-07 -5.3887983126792114e-08 0.0000000000000000e+00  3.8530586367451697e-09 1.1634184132628328e-09 0.0000000000000000e+00  2.3057916175894297e-07 -6.6481324346063194e-08 0.0000000000000000e+00  2.4666655359238948e-09 -5.2295457823503084e-10 0.0000000000000000e+00  2.8863537568630524e-07 -7.8880290866817793e-08 0.0000000000000000e+00  2.4618690012011088e-09 6.9082507784147207e-10 0.0000000000000000e+00  3.5551330907623378e-07 -8.7019089328392012e-08 0.0000000000000000e+00  1.2775673523361420e-09 -3.1565881678546120e-10 0.0000000000000000e+00  4.1576906774862770e-07 -8.2211858282295087e-08 0.0000000000000000e+00  1.0332698307509927e-10 -1.3522280186538015e-09 0.0000000000000000e+00  3.9239891502881561e-07 -4.7995425353388658e-08 0.0000000000000000e+00  8.4453795111829130e-26 2.2899207978427965e-25 0.0000000000000000e+00  0.0000000000000000e+00 0.0000000000000000e+00 0.0000000000000000e+00  5.4680356236211262e-07 9.4271693718618421e-08 0.0000000000000000e+00  0.0000000000000000e+00 0.0000000000000000e+00 0.0000000000000000e+00  6.0620507262999959e-07 1.4619550401119586e-07 0.0000000000000000e+00  5.6860591277052586e-07 1.5424334595042644e-07 0.0000000000000000e+00  5.0987600245846014e-07 1.4168405116051434e-07 0.0000000000000000e+00  4.5100919898976934e-07 1.2134537060011691e-07 0.0000000000000000e+00  3.9877701426764139e-07 9.9569198173317407e-08 0.0000000000000000e+00  3.5526564659934951e-07 7.9276415949243101e-08 0.0000000000000000e+00  3.2075679942263805e-07 6.1726568537537606e-08 0.0000000000000000e+00  2.9466477677948411e-07 4.7210692460608165e-08 0.0000000000000000e+00  2.7577909138449000e-07 3.5309924327407343e-08 0.0000000000000000e+00  2.6256152912977353e-07 2.5528699925985977e-08 0.0000000000000000e+00  2.5355404075307384e-07 1.7590547845268015e-08 0.0000000000000000e+00  2.4753093708584685e-07 1.1359611321469799e-08 0.0000000000000000e+00  2.4362404143960290e-07 6.5276544393138245e-09 0.0000000000000000e+00  2.4126792881598595e-07 2.7376300779260954e-09 0.0000000000000000e+00  2.4004747590142499e-07 -4.9142352691693744e-10 0.0000000000000000e+00  2.3988170359214388e-07 -3.6000616939570550e-09 0.0000000000000000e+00  2.4098933103979895e-07 -7.0191672342923847e-09 0.0000000000000000e+00  2.4374794801539320e-07 -1.1296554607978222e-08 0.0000000000000000e+00  2.4884469175000222e-07 -1.6934851847486730e-08 0.0000000000000000e+00  2.5722574306413797e-07 -2.4392346259280278e-08 0.0000000000000000e+00  2.6994301259927704e-07 -3.4184265986737068e-08 0.0000000000000000e+00  2.8826908727326108e-07 -4.6699976291046093e-08 0.0000000000000000e+00  3.1358122116773975e-07 -6.2156227268233345e-08 0.0000000000000000e+00  3.4712128525631842e-07 -8.0591997260736091e-08 0.0000000000000000e+00  3.8999000950684153e-07 -1.0148939598938521e-07 0.0000000000000000e+00  4.4283148524046121e-07 -1.2332952787146787e-07 0.0000000000000000e+00  5.0504158452752302e-07 -1.4278488292424078e-07 0.0000000000000000e+00  5.7225567942333263e-07 -1.5288168435119198e-07 0.0000000000000000e+00  6.2309377902342438e-07 -1.4043496534072115e-07 0.0000000000000000e+00  5.5679863841434993e-07 -8.5521082413227401e-08 0.0000000000000000e+00  0.0000000000000000e+00 0.0000000000000000e+00 0.0000000000000000e+00  6.5847694980107765e-07 1.1118711312638865e-07 0.0000000000000000e+00  0.0000000000000000e+00 0.0000000000000000e+00 0.0000000000000000e+00  7.5645586529000181e-07 1.8260495093314739e-07 0.0000000000000000e+00  7.3739357212262666e-07 2.0260612515829930e-07 0.0000000000000000e+00  6.9560527121296612e-07 1.9321513805816575e-07 0.0000000000000000e+00  6.5092166214121786e-07 1.6993302454489116e-07 0.0000000000000000e+00  6.0946536757763813e-07 1.4184369947211110e-07 0.0000000000000000e+00  5.7389953091957530e-07 1.1389010298297906e-07 0.0000000000000000e+00  5.4521605262163502e-07 8.8561068779100643e-08 0.0000000000000000e+00  5.2339005973838390e-07 6.6913435253557805e-08 0.0000000000000000e+00  5.0770080370798315e-07 4.9106872358222280e-08 0.0000000000000000e+00  4.9701917903000135e-07 3.4852160767375267e-08 0.0000000000000000e+00  4.9009431994304393e-07 2.3721935417578744e-08 0.0000000000000000e+00  4.8577906395828897e-07 1.5264388403378800e-08 0.0000000000000000e+00  4.8316227989528508e-07 8.9297987648481674e-09 0.0000000000000000e+00  4.8161361553396821e-07 4.1020555126716216e-09 0.0000000000000000e+00  4.8073191829727687e-07 7.8353432203398501e-11 0.0000000000000000e+00  4.8040514529155829e-07 -3.8793106719087844e-09 0.0000000000000000e+00  4.8081844031847866e-07 -8.4797962241699148e-09 0.0000000000000000e+00  4.8239064902393778e-07 -1.4477013927393471e-08 0.0000000000000000e+00  4.8579660782883163e-07 -2.2617305795782664e-08 0.0000000000000000e+00  4.9193725104138362e-07 -3.3556378366774862e-08 0.0000000000000000e+00  5.0183124744341059e-07 -4.7891731484713578e-08 0.0000000000000000e+00  5.1658289638925479e-07 -6.6051971250032376e-08 0.0000000000000000e+00  5.3727934119374084e-07 -8.8120088566319729e-08 0.0000000000000000e+00  5.6479580343611587e-07 -1.1370729724842528e-07 0.0000000000000000e+00  5.9966797862912932e-07 -1.4156564920020990e-07 0.0000000000000000e+00  6.4188264611266130e-07 -1.6894342861878245e-07 0.0000000000000000e+00  6.9032666063103999e-07 -1.9069900564485711e-07 0.0000000000000000e+00  7.4032568896863611e-07 -1.9784350960747750e-07 0.0000000000000000e+00  7.6952715281138019e-07 -1.7596473137389663e-07 0.0000000000000000e+00  6.6726391455140883e-07 -1.0661686208375983e-07 0.0000000000000000e+00  0.0000000000000000e+00 0.0000000000000000e+00 0.0000000000000000e+00  7.5313796845915361e-07 1.1743964812708144e-07 0.0000000000000000e+00  0.0000000000000000e+00 0.0000000000000000e+00 0.0000000000000000e+00  8.8069507711574179e-07 1.9824941319783194e-07 0.0000000000000000e+00  8.8039855489927171e-07 2.2774544905303262e-07 0.0000000000000000e+00  8.5845281110892382e-07 2.2356502665579868e-07 0.0000000000000000e+00  8.3350656838133301e-07 2.0093945118661967e-07 0.0000000000000000e+00  8.1000834665804695e-07 1.7017330723024836e-07 0.0000000000000000e+00  7.8982731428599678e-07 1.3765196675847738e-07 0.0000000000000000e+00  7.7387950734031974e-07 1.0704801146619089e-07 0.0000000000000000e+00  7.6235655334878439e-07 8.0253788242396421e-08 0.0000000000000000e+00  7.5487147859652417e-07 5.8002708538903417e-08 0.0000000000000000e+00  7.5065879109259106e-07 4.0312851880973955e-08 0.0000000000000000e+00  7.4877428329551373e-07 2.6803165832224206e-08 0.0000000000000000e+00  7.4827697389099492e-07 1.6876737688879239e-08 0.0000000000000000e+00  7.4836711872000982e-07 9.7850803440672667e-09 0.0000000000000000e+00  7.4845486071953009e-07 4.6697936748374423e-09 0.0000000000000000e+00  7.4817880098226097e-07 5.8827790272060180e-10 0.0000000000000000e+00  7.4742834365213102e-07 -3.4482428135846562e-09 0.0000000000000000e+00  7.4635233347623279e-07 -8.4257395832275699e-09 0.0000000000000000e+00  7.4533336299873696e-07 -1.5322194573626556e-08 0.0000000000000000e+00  7.4496975365329887e-07 -2.5070422317042150e-08 0.0000000000000000e+00  7.4603244600563118e-07 -3.8484444288258108e-08 0.0000000000000000e+00  7.4938800051955811e-07 -5.6203048008562582e-08 0.0000000000000000e+00  7.5591741548782830e-07 -7.8569284965117736e-08 0.0000000000000000e+00  7.6641655390498831e-07 -1.0543388896709888e-07 0.0000000000000000e+00  7.8147422239847832e-07 -1.3590989933760495e-07 0.0000000000000000e+00  8.0137919197955281e-07 -1.6796697669289855e-07 0.0000000000000000e+00  8.2607461202803842e-07 -1.9782142121539794e-07 0.0000000000000000e+00  8.5491048666737735e-07 -2.1915333381175058e-07 0.0000000000000000e+00  8.8434134840672871e-07 -2.2216632340110751e-07 0.0000000000000000e+00  8.9273652725311810e-07 -1.9296986265110159e-07 0.0000000000000000e+00  7.6099424621299965e-07 -1.1567067122062265e-07 0.0000000000000000e+00  0.0000000000000000e+00 0.0000000000000000e+00 0.0000000000000000e+00  8.3848037971534736e-07 1.1545600571462599e-07 0.0000000000000000e+00  0.0000000000000000e+00 0.0000000000000000e+00 0.0000000000000000e+00  9.9103556890892160e-07 1.9777307229295643e-07 0.0000000000000000e+00  1.0078416361893936e-06 2.3179313453736580e-07 0.0000000000000000e+00  1.0051626382008221e-06 2.3159295732757644e-07 0.0000000000000000e+00  1.0011776645239713e-06 2.1083411881670805e-07 0.0000000000000000e+00  9.9829838517573287e-07 1.7977869869790912e-07 0.0000000000000000e+00  9.9703682201939907e-07 1.4543821555278709e-07 0.0000000000000000e+00  9.9766270491402946e-07 1.1225123334078429e-07 0.0000000000000000e+00  1.0001819749167353e-06 8.2770167315326123e-08 0.0000000000000000e+00  1.0042841341465466e-06 5.8218335143104492e-08 0.0000000000000000e+00  1.0094103718667471e-06 3.8915580482877331e-08 0.0000000000000000e+00  1.0148550756782601e-06 2.4593467517573008e-08 0.0000000000000000e+00  1.0198841142700974e-06 1.4609530831713563e-08 0.0000000000000000e+00  1.0238479667768848e-06 8.0770049535344394e-09 0.0000000000000000e+00  1.0262515626572498e-06 3.9447999947408178e-09 0.0000000000000000e+00  1.0267889594904597e-06 1.0554701243097235e-09 0.0000000000000000e+00  1.0253635949524983e-06 -1.8031596910761319e-09 0.0000000000000000e+00  1.0220925706563153e-06 -5.8478867493878127e-09 0.0000000000000000e+00  1.0172945133771229e-06 -1.2258625301560096e-08 0.0000000000000000e+00  1.0114626551539742e-06 -2.2123598843816989e-08 0.0000000000000000e+00  1.0052266154054224e-06 -3.6360933901392205e-08 0.0000000000000000e+00  9.9928565863886589e-07 -5.5617817179915727e-08 0.0000000000000000e+00  9.9433681410846138e-07 -8.0123885432212726e-08 0.0000000000000000e+00  9.9101101781411403e-07 -1.0947890032776879e-07 0.0000000000000000e+00  9.8982258116580998e-07 -1.4236987306016437e-07 0.0000000000000000e+00  9.9117895476167747e-07 -1.7618252581029113e-07 0.0000000000000000e+00  9.9550676199003212e-07 -2.0649726365450530e-07 0.0000000000000000e+00  1.0032198045721769e-06 -2.2651937936708530e-07 0.0000000000000000e+00  1.0124113250733617e-06 -2.2656994076088180e-07 0.0000000000000000e+00  1.0022811147385187e-06 -1.9402521865463628e-07 0.0000000000000000e+00  8.4520777958956333e-07 -1.1544350789105532e-07 0.0000000000000000e+00  0.0000000000000000e+00 0.0000000000000000e+00 0.0000000000000000e+00  9.1544282937756863e-07 1.0634038039879697e-07 0.0000000000000000e+00  0.0000000000000000e+00 0.0000000000000000e+00 0.0000000000000000e+00  1.0904295759312865e-06 1.8354446428710881e-07 0.0000000000000000e+00  1.1225998013402526e-06 2.1694286245182539e-07 0.0000000000000000e+00  1.1379139845934008e-06 2.1807635154075028e-07 0.0000000000000000e+00  1.1543189998577493e-06 1.9879762400815274e-07 0.0000000000000000e+00  1.1724262090016567e-06 1.6862386338695911e-07 0.0000000000000000e+00  1.1912517288684963e-06 1.3451496707323211e-07 0.0000000000000000e+00  1.2101343879869225e-06 1.0118231739373948e-07 0.0000000000000000e+00  1.2286142712474276e-06 7.1533710217010533e-08 0.0000000000000000e+00  1.2462283406650163e-06 4.7105280964897821e-08 0.0000000000000000e+00  1.2624540900394680e-06 2.8431969413651603e-08 0.0000000000000000e+00  1.2767147174395979e-06 1.5343141914471830e-08 0.0000000000000000e+00  1.2884289409689231e-06 7.1844695225094936e-09 0.0000000000000000e+00  1.2970823727340299e-06 2.9745691208597664e-09 0.0000000000000000e+00  1.3022811254320245e-06 1.5165130407767812e-09 0.0000000000000000e+00  1.3037803980235850e-06 1.4783505143342762e-09 0.0000000000000000e+00  1.3015007120268096e-06 1.4618310258804852e-09 0.0000000000000000e+00  1.2955331530779923e-06 6.5051362278452526e-11 0.0000000000000000e+00  1.2861285739010191e-06 -4.0562534208170719e-09 0.0000000000000000e+00  1.2736812495089411e-06 -1.2116917099821382e-08 0.0000000000000000e+00  1.2586951667142861e-06 -2.5109130318295697e-08 0.0000000000000000e+00  1.2417437079138697e-06 -4.3682377126726887e-08 0.0000000000000000e+00  1.2234241874941353e-06 -6.7979525501715589e-08 0.0000000000000000e+00  1.2043422130390370e-06 -9.7422102871836517e-08 0.0000000000000000e+00  1.1851452717155060e-06 -1.3043622770728497e-07 0.0000000000000000e+00  1.1666329814752381e-06 -1.6411500018236771e-07 0.0000000000000000e+00  1.1500099035951588e-06 -1.9383815559014540e-07 0.0000000000000000e+00  1.1369668048547093e-06 -2.1290758469084046e-07 0.0000000000000000e+00  1.1272343270971328e-06 -2.1232300729705127e-07 0.0000000000000000e+00  1.1005770949783694e-06 -1.8097131492856475e-07 0.0000000000000000e+00  9.2113569301022702e-07 -1.0749910712381674e-07 0.0000000000000000e+00  0.0000000000000000e+00 0.0000000000000000e+00 0.0000000000000000e+00  9.8377780432104832e-07 9.0835785610037160e-08 0.0000000000000000e+00  0.0000000000000000e+00 0.0000000000000000e+00 0.0000000000000000e+00  1.1789076857063955e-06 1.5707740383382755e-07 0.0000000000000000e+00  1.2248634159787058e-06 1.8511045608920933e-07 0.0000000000000000e+00  1.2565285954054116e-06 1.8456997005136557e-07 0.0000000000000000e+00  1.2918557620297867e-06 1.6559935260149803e-07 0.0000000000000000e+00  1.3299472363303384e-06 1.3664649215003993e-07 0.0000000000000000e+00  1.3684110556421065e-06 1.0416072647714889e-07 0.0000000000000000e+00  1.4055899370884228e-06 7.2703956006995843e-08 0.0000000000000000e+00  1.4404195204844201e-06 4.5215324400400034e-08 0.0000000000000000e+00  1.4721341357660262e-06 2.3323659376982622e-08 0.0000000000000000e+00  1.5001151965283056e-06 7.6446870212945384e-09 0.0000000000000000e+00  1.5238137472481378e-06 -1.9586126460918741e-09 0.0000000000000000e+00  1.5427345886454151e-06 -6.1650078191423268e-09 0.0000000000000000e+00  1.5564629877738514e-06 -6.0312507239673457e-09 0.0000000000000000e+00  1.5646892714531668e-06 -2.8687318725362922e-09 0.0000000000000000e+00  1.5672235883160841e-06 1.8547736828015590e-09 0.0000000000000000e+00  1.5640042866554327e-06 6.5951291063615411e-09 0.0000000000000000e+00  1.5550997363061192e-06 9.8058289158864970e-09 0.0000000000000000e+00  1.5407053568623052e-06 1.0012750430307001e-08 0.0000000000000000e+00  1.5211313298599436e-06 5.8977246957160474e-09 0.0000000000000000e+00  1.4967937811852999e-06 -3.5998708463047999e-09 0.0000000000000000e+00  1.4681925038525855e-06 -1.9152972362406223e-08 0.0000000000000000e+00  1.4359073107365688e-06 -4.0883912810076618e-08 0.0000000000000000e+00  1.4006378384009865e-06 -6.8159933210249186e-08 0.0000000000000000e+00  1.3633025916765965e-06 -9.9350349311072951e-08 0.0000000000000000e+00  1.3252346703129785e-06 -1.3155484162491457e-07 0.0000000000000000e+00  1.2885173319255894e-06 -1.6033198064470003e-07 0.0000000000000000e+00  1.2560930182500469e-06 -1.7948685747533706e-07 0.0000000000000000e+00  1.2291264489113158e-06 -1.8100819908129903e-07 0.0000000000000000e+00  1.1877182671638676e-06 -1.5532751389738012e-07 0.0000000000000000e+00  9.8851259039938670e-07 -9.2838630017500637e-08 0.0000000000000000e+00  0.0000000000000000e+00 0.0000000000000000e+00 0.0000000000000000e+00  1.0427796937713782e-06 6.9620561107040355e-08 0.0000000000000000e+00  0.0000000000000000e+00 0.0000000000000000e+00 0.0000000000000000e+00  1.2555852214149847e-06 1.1972347921214801e-07 0.0000000000000000e+00  1.3136498075731507e-06 1.3818304656969053e-07 0.0000000000000000e+00  1.3597114560823582e-06 1.3308436418262028e-07 0.0000000000000000e+00  1.4118678386752138e-06 1.1298881524916116e-07 0.0000000000000000e+00  1.4679872853213936e-06 8.5134694057213015e-08 0.0000000000000000e+00  1.5244545624049949e-06 5.5172801050333007e-08 0.0000000000000000e+00  1.5786779531487146e-06 2.7193935928294814e-08 0.0000000000000000e+00  1.6289667247464732e-06 3.8869361676483449e-09 0.0000000000000000e+00  1.6741874639079339e-06 -1.3246446777536670e-08 0.0000000000000000e+00  1.7135496469881191e-06 -2.3658997458556261e-08 0.0000000000000000e+00  1.7464620654432861e-06 -2.7542215446819983e-08 0.0000000000000000e+00  1.7724610569473493e-06 -2.5638030886180031e-08 0.0000000000000000e+00  1.7911935644467064e-06 -1.9083440165123648e-08 0.0000000000000000e+00  1.8024125786705191e-06 -9.2847687386758809e-09 0.0000000000000000e+00  1.8059717096104214e-06 2.1831402605624686e-09 0.0000000000000000e+00  1.8018240243162325e-06 1.3665085971440892e-08 0.0000000000000000e+00  1.7900219077974969e-06 