<?xml version="1.0"?>
<VTKFile type="UnstructuredGrid"  version="0.1"  >
<UnstructuredGrid>
<Piece  NumberOfPoints="825" NumberOfCells="1536">
<Points>
<DataArray  type="Float64"  NumberOfComponents="3"  format="ascii">-1.045393655956676e-21 0.5 0  0.06249999998825945 0.5000000000932651 0  0.06249999900172513 0.5625000010161408 0  -2.381570652204961e-09 0.5625000000594275 0  0.1249999998890763 0.4999999999537634 0  0.1249999994491041 0.5625000008193742 0  0.1874999995739315 0.4999999994916255 0  0.1874999993534075 0.5625000001840571 0  0.2499999990751033 0.4999999988846273 0  0.2499999989282456 0.5624999993853674 0  0.3124999983918549 0.4999999981591499 0  0.3124999982384178 0.5624999983662389 0  0.3749999969732056 0.4999999966825576 0  0.3749999972160939 0.5624999971300493 0  0.4374999955471991 0.4999999954876457 0  0.4374999961092063 0.5624999960577228 0  0.4999999942688537 0.4999999945244918 0  0.4999999951133281 0.5624999950642358 0  0.5624999929631761 0.499999993153559 0  0.5624999943064922 0.5624999942757535 0  0.6249999930156893 0.499999993346639 0  0.62499999400649 0.5624999942689023 0  0.687499993809681 0.4999999942060303 0  0.6874999941978999 0.5624999944640584 0  0.7499999937934602 0.4999999934714879 0  0.7499999944410423 0.5624999944044355 0  0.8124999945488818 0.4999999940220471 0  0.8124999949210433 0.5624999947298511 0  0.8749999957138698 0.4999999947980635 0  0.8749999955854301 0.5624999949540888 0  0.9374999958442822 0.4999999938931979 0  0.9374999961105668 0.5624999948604306 0  0.999999996747422 0.4999999944498127 0  0.9999999967400249 0.5624999951436085 0  1.062499997860579 0.4999999951072381 0  1.062499997422129 0.5624999952888946 0  1.124999997820966 0.4999999941460431 0  1.12499999787493 0.5624999951143111 0  1.187499998465378 0.4999999945390826 0  1.18749999834587 0.5624999953105285 0  1.249999999364327 0.4999999952037302 0  1.249999998815882 0.5624999954301599 0  1.312499999074577 0.4999999943111983 0  1.312499999011035 0.5624999952751286 0  1.374999999348157 0.499999994695527 0  1.374999999163098 0.5624999954826403 0  1.437499999715326 0.499999995236539 0  1.437499999256833 0.5624999956741137 0  1.499999999192811 0.4999999947740431 0  1.499999999072146 0.5624999958525508 0  1.562499999141485 0.4999999958297493 0  1.562499998877817 0.5624999965757579 0  1.624999999355046 0.4999999972455199 0  1.624999998754345 0.56249999741246 0  1.687499999260641 0.4999999978138656 0  1.687499998553903 0.562499998164342 0  1.749999999495245 0.4999999987625269 0  1.749999998400686 0.5624999990586292 0  1.812499999826179 0.49999999947569 0  1.812499998277349 0.5624999998881569 0  1.874999999919387 0.4999999996639095 0  1.874999998062571 0.5625000007658906 0  1.937500000017228 0.4999999999413231 0  1.937499998046625 0.5625000020265176 0  2 0.5 0  2.00000000038208 0.5625000032645218 0  0.06249999827959129 0.6250000011020981 0  -2.665842961355181e-09 0.6250000004766069 0  0.1249999988131447 0.6250000010024966 0  0.1874999989055875 0.6250000004486012 0  0.2499999986487813 0.6249999996517824 0  0.3124999981245408 0.6249999986865015 0  0.3749999973784889 0.624999997642448 0  0.4374999965346844 0.6249999966617916 0  0.4999999957375815 0.6249999958098376 0  0.5624999950778266 0.6249999952047706 0  0.6249999946899661 0.6249999949738441 0  0.6874999946330452 0.6249999949631405 0  0.7499999947820265 0.624999995020564 0  0.8124999950969393 0.6249999951740673 0  0.87499999555755 0.624999995324347 0  0.9374999960491822 0.6249999954238483 0  0.9999999965650608 0.6249999955608452 0  1.062499997106559 0.6249999956619889 0  1.124999997580315 0.6249999956975808 0  1.187499997992199 0.6249999957737915 0  1.249999998357727 0.6249999958415559 0  1.312499998598477 0.624999995880809 0  1.374999998723184 0.6249999959977623 0  1.437499998746031 0.6249999961839479 0  1.499999998619064 0.6249999964836321 0  1.562499998401711 0.6249999970027881 0  1.624999998159901 0.6249999976759649 0  1.687499997883482 0.6249999984439307 0  1.749999997605606 0.6249999993268375 0  1.812499997362682 0.6250000003131914 0  1.87499999722365 0.6250000014535787 0  1.937499997534003 0.6250000026976285 0  1.999999998722772 0.6250000030776257 0  0.06249999790536315 0.6875000008388885 0  -2.617119982553206e-09 0.6875000004394369 0  0.1249999983069495 0.687500000792491 0  0.1874999984444537 0.6875000003648423 0  0.2499999983094086 0.6874999996860177 0  0.312499997942575 0.6874999988581647 0  0.374999997400081 0.6874999979758339 0  0.437499996766602 0.6874999971349496 0  0.4999999961379247 0.6874999964146644 0  0.5624999955993142 0.6874999958906091 0  0.624999995235177 0.6874999956033367 0  0.6874999950890263 0.6874999955037153 0  0.7499999951341528 0.6874999955187349 0  0.8124999953359657 0.687499995605254 0  0.8749999956590079 0.6874999957170609 0  0.9374999960496682 0.6874999958268546 0  0.9999999964765246 0.6874999959356848 0  1.062499996915531 0.6874999960279232 0  1.124999997325972 0.6874999960979755 0  1.187499997687617 0.6874999961661161 0  1.249999997987533 0.687499996235024 0  1.312499998196012 0.6874999963134737 0  1.374999998300244 0.6874999964358383 0  1.437499998296284 0.6874999966302336 0  1.499999998178561 0.6874999969327472 0  1.562499997972383 0.687499997379972 0  1.62499999771451 0.6874999979687325 0  1.687499997430931 0.6874999986829758 0  1.749999997160588 0.6874999995165898 0  1.81249999696289 0.6875000004540635 0  1.874999996939378 0.6875000014420177 0  1.937499997233476 0.6875000022665981 0  1.99999999772861 0.6875000024993591 0  0.06249999770011703 0.7500000004393604 0  -2.563236191676312e-09 0.750000000177637 0  0.1249999979496751 0.7500000004163531 0  0.1874999980605888 0.7500000001023394 0  0.2499999979868985 0.7499999995673781 0  0.3124999977359575 0.749999998896326 0  0.3749999973452564 0.7499999981728236 0  0.4374999968731511 0.749999997475322 0  0.4999999963878635 0.7499999968713099 0  0.5624999959569574 0.7499999964128886 0  0.6249999956403227 0.7499999961222764 0  0.6874999954733659 0.7499999959810651 0  0.7499999954577368 0.7499999959497972 0  0.8124999955758406 0.7499999959896668 0  0.8749999958001982 0.749999996066758 0  0.9374999960968866 0.7499999961578186 0  0.9999999964355454 0.7499999962505381 0  1.062499996788536 0.7499999963359665 0  1.124999997127295 0.7499999964118774 0  1.187499997428828 0.7499999964844648 0  1.249999997674013 0.7499999965616556 0  1.312499997843496 0.7499999966565087 0  1.374999997923972 0.7499999967906199 0  1.437499997909585 0.7499999969891424 0  1.499999997802849 0.7499999972788336 0  1.562499997620878 0.7499999976810352 0  1.624999997391361 0.7499999982016524 0  1.687499997147131 0.7499999988336861 0  1.749999996930407 0.7499999995593939 0  1.812499996795672 0.7500000003385227 0  1.87499999680288 0.750000001082501 0  1.937499996967907 0.7500000016308292 0  1.999999997146498 0.7500000018481152 0  0.06249999755542408 0.812500000014694 0  -2.564985973918538e-09 0.8124999998356858 0  0.1249999976919364 0.8125000000038722 0  0.187499997759133 0.8124999997783078 0  0.249999997709573 0.8124999993729642 0  0.3124999975342661 0.8124999988483431 0  0.3749999972525955 0.8124999982712603 0  0.4374999969028821 0.8124999977054482 0  0.4999999965335484 0.8124999972053045 0  0.5624999961949423 0.8124999968101349 0  0.6249999959314141 0.8124999965375462 0  0.6874999957723107 0.8124999963813985 0  0.7499999957273089 0.8124999963196665 0  0.8124999957898434 0.8124999963251154 0  0.8749999959425018 0.8124999963721508 0  0.9374999961617984 0.8124999964408867 0  0.9999999964228133 0.8124999965179628 0  1.062499996700898 0.8124999965953714 0  1.124999996972183 0.8124999966707194 0  1.187499997215322 0.8124999967470904 0  1.249999997411769 0.8124999968317811 0  1.31249999754575 0.8124999969366283 0  1.37499999760626 0.8124999970781257 0  1.437499997588959 0.8124999972755268 0  1.499999997497945 0.8124999975478426 0  1.562499997347456 0.8124999979090067 0  1.624999997160789 0.812499998362907 0  1.687499996968173 0.8124999989008538 0  1.749999996805481 0.8124999994984403 0  1.812499996709908 0.8125000001085716 0  1.874999996705626 0.8125000006549564 0  1.937499996773328 0.8125000010465533 0  1.9999999968264 0.8125000012481465 0  0.06249999742527779 0.8749999996193438 0  -2.622748206801053e-09 0.874999999488016 0  0.1249999974906108 0.874999999617499 0  0.1874999975207221 0.8749999994578272 0  0.2499999974786648 0.8749999991572056 0  0.312499997351031 0.8749999987563478 0  0.3749999971458843 0.8749999983053595 0  0.4374999968872103 0.8749999978540979 0  0.4999999966084642 0.8749999974455851 0  0.5624999963460696 0.8749999971109886 0  0.6249999961330226 0.8749999968660267 0  0.687499995993081 0.8749999967106398 0  0.7499999959375233 0.8749999966329253 0  0.8124999959656041 0.8749999966150681 0  0.8749999960671992 0.874999996638508 0  0.9374999962260919 0.8749999966873381 0  0.9999999964230075 0.8749999967498133 0  1.062499996637626 0.8749999968186855 0  1.124999996849924 0.8749999968913283 0  1.187499997041371 0.8749999969695609 0  1.249999997195759 0.8749999970592142 0  1.312499997300015 0.87499999716981 0  1.374999997345488 0.8749999973139002 0  1.437499997329406 0.8749999975054846 0  1.499999997256137 0.87499999775744 0  1.562499997137811 0.8749999980780566 0  1.624999996993621 0.8749999984674369 0  1.687499996847917 0.8749999989144643 0  1.749999996727059 0.8749999993939804 0  1.812499996653376 0.8749999998647612 0  1.874999996634666 0.8750000002727988 0  1.93749999665276 0.8750000005690651 0  1.999999996667511 0.8750000007454974 0  0.06249999729300196 0.9374999992760256 0  -2.723016995173423e-09 0.937499999170505 0  0.1249999973188951 0.9374999992826833 0  0.1874999973247558 0.9374999991718601 0  0.2499999972854063 0.937499998952005 0  0.3124999971887554 0.9374999986501806 0  0.3749999970372473 0.9374999983027177 0  0.4374999968454722 0.9374999979474592 0  0.4999999966360286 0.9374999976179449 0  0.5624999964347623 0.9374999973392506 0  0.6249999962659986 0.9374999971255635 0  0.6874999961484436 0.9374999969800217
[...]
<PointData  Vectors="u"> 
<DataArray  type="Float64"  Name="u"  NumberOfComponents="3" format="ascii">-2.2298748044107944e-26 2.0732349725224573e-25 0.0000000000000000e+00  1.5520965947290287e-10 -1.7628971072693026e-09 0.0000000000000000e+00  3.2192251367009351e-07 4.9377986663581615e-08 0.0000000000000000e+00  0.0000000000000000e+00 0.0000000000000000e+00 0.0000000000000000e+00  5.8692676096885928e-10 -2.9382098086978627e-09 0.0000000000000000e+00  3.5445636127147771e-07 7.0488208453171708e-08 0.0000000000000000e+00  1.2038953315361298e-09 -3.9801552562777580e-09 0.0000000000000000e+00  3.0951578488450154e-07 6.9399091805674669e-08 0.0000000000000000e+00  2.0156222739020460e-09 -4.7285753043078367e-09 0.0000000000000000e+00  2.5745961663554233e-07 6.0272141357037285e-08 0.0000000000000000e+00  3.1336180404806123e-09 -4.7519647162248330e-09 0.0000000000000000e+00  2.1051996539162914e-07 4.9235646892470519e-08 0.0000000000000000e+00  4.2494823822841103e-09 -4.8762362513206039e-09 0.0000000000000000e+00  1.7133876558270871e-07 3.8659257571918322e-08 0.0000000000000000e+00  5.4829370209629884e-09 -4.7503074108298679e-09 0.0000000000000000e+00  1.4012207988810082e-07 2.9459745533808507e-08 0.0000000000000000e+00  7.0189618968332756e-09 -3.9069281756107973e-09 0.0000000000000000e+00  1.1615601336718998e-07 2.1958240353566578e-08 0.0000000000000000e+00  8.2004308350273971e-09 -3.5649713355895111e-09 0.0000000000000000e+00  9.8321841527484174e-08 1.5996921794339248e-08 0.0000000000000000e+00  9.1508231192962148e-09 -3.4510898876149282e-09 0.0000000000000000e+00  8.5440219078182388e-08 1.1338752555801884e-08 0.0000000000000000e+00  1.0440035577717893e-08 -2.4912332190354431e-09 0.0000000000000000e+00  7.6474449717448938e-08 7.7775691167625076e-09 0.0000000000000000e+00  1.1262095448263083e-08 -2.1192209425138615e-09 0.0000000000000000e+00  7.0428734987114875e-08 5.1250921974928056e-09 0.0000000000000000e+00  1.1961858826331327e-08 -1.7508768331903242e-09 0.0000000000000000e+00  6.6563539804870898e-08 3.2069370681167542e-09 0.0000000000000000e+00  1.2758114828513483e-08 -8.7739612711109199e-10 0.0000000000000000e+00  6.4283931075686202e-08 1.9409435519718191e-09 0.0000000000000000e+00  1.3168897596776781e-08 -4.9350972453661239e-10 0.0000000000000000e+00  6.3140744236985016e-08 1.0566753843645108e-09 0.0000000000000000e+00  1.3456323318301542e-08 -1.0854766815300996e-10 0.0000000000000000e+00  6.2832103109702777e-08 3.5873282503019885e-10 0.0000000000000000e+00  1.3847261980728823e-08 7.8730339730457067e-10 0.0000000000000000e+00  6.3296160545386315e-08 -2.4318504308865823e-10 0.0000000000000000e+00  1.3848007394263407e-08 1.1910326311184531e-09 0.0000000000000000e+00  6.4618682699106255e-08 -1.0344278882530560e-09 0.0000000000000000e+00  1.3716162169101665e-08 1.5877294772004649e-09 0.0000000000000000e+00  6.7038778797547639e-08 -2.2336136637615892e-09 0.0000000000000000e+00  1.3683421799965933e-08 2.4920639729239435e-09 0.0000000000000000e+00  7.1037663242680894e-08 -3.9618021871501413e-09 0.0000000000000000e+00  1.3261966148656794e-08 2.9056345306422215e-09 0.0000000000000000e+00  7.7249544314862588e-08 -6.5342406279596152e-09 0.0000000000000000e+00  1.2708456012388896e-08 3.3130878214085934e-09 0.0000000000000000e+00  8.6461336992983444e-08 -1.0196074606257834e-08 0.0000000000000000e+00  1.2248976154285488e-08 4.2295667277136132e-09 0.0000000000000000e+00  9.9686512738862262e-08 -1.5091957503974969e-08 0.0000000000000000e+00  1.1397531744269995e-08 4.6636651745858365e-09 0.0000000000000000e+00  1.1805059184471700e-07 -2.1555269376829113e-08 0.0000000000000000e+00  1.0411412648592514e-08 4.9635893421777025e-09 0.0000000000000000e+00  1.4275649909496650e-07 -2.9799960112521871e-08 0.0000000000000000e+00  9.5169465760056639e-09 5.4929552158769259e-09 0.0000000000000000e+00  1.7510032338883633e-07 -3.9765590184548271e-08 0.0000000000000000e+00  8.2292966646665689e-09 5.2552471583385943e-09 0.0000000000000000e+00  2.1622673715160698e-07 -5.1162449572256901e-08 0.0000000000000000e+00  6.8065343013038465e-09 4.7230889702137851e-09 0.0000000000000000e+00  2.6667924192909964e-07 -6.2694872428342926e-08 0.0000000000000000e+00  5.4816851546330184e-09 4.3831611345783337e-09 0.0000000000000000e+00  3.2456558744961698e-07 -7.0913184508456554e-08 0.0000000000000000e+00  3.7715246391560266e-09 3.2374452842259722e-09 0.0000000000000000e+00  3.7617000993939066e-07 -6.8239722227829408e-08 0.0000000000000000e+00  1.8250716870577397e-09 1.5566645954856487e-09 0.0000000000000000e+00  3.5267752094597509e-07 -4.0210540505876618e-08 0.0000000000000000e+00  -1.5966688636953948e-25 -1.1304216372854986e-25 0.0000000000000000e+00  0.0000000000000000e+00 0.0000000000000000e+00 0.0000000000000000e+00  4.8597212440559239e-07 8.1615331351711760e-08 0.0000000000000000e+00  0.0000000000000000e+00 0.0000000000000000e+00 0.0000000000000000e+00  5.3938575537601335e-07 1.2624732929028895e-07 0.0000000000000000e+00  5.0671573946349630e-07 1.3248032265874833e-07 0.0000000000000000e+00  4.5540739020699435e-07 1.2074888000342295e-07 0.0000000000000000e+00  4.0407496217587823e-07 1.0233415245522915e-07 0.0000000000000000e+00  3.5865143906595759e-07 8.2786670149307629e-08 0.0000000000000000e+00  3.2095208553632100e-07 6.4668836544482700e-08 0.0000000000000000e+00  2.9112042791782822e-07 4.9043392841660042e-08 0.0000000000000000e+00  2.6847303398411100e-07 3.6168379109411876e-08 0.0000000000000000e+00  2.5191339416073283e-07 2.5895831977999376e-08 0.0000000000000000e+00  2.4026245535046356e-07 1.7938036713650206e-08 0.0000000000000000e+00  2.3240502437533608e-07 1.1975256261704716e-08 0.0000000000000000e+00  2.2735625368636523e-07 7.6428048122677618e-09 0.0000000000000000e+00  2.2431132725330817e-07 4.5676686923090039e-09 0.0000000000000000e+00  2.2267867494178320e-07 2.3418268499466338e-09 0.0000000000000000e+00  2.2207440758190573e-07 5.4532627422970229e-10 0.0000000000000000e+00  2.2236841160057437e-07 -1.2210792782775682e-09 0.0000000000000000e+00  2.2368486806358717e-07 -3.3883651173063448e-09 0.0000000000000000e+00  2.2636515084987259e-07 -6.3969095030445394e-09 0.0000000000000000e+00  2.3099706103384137e-07 -1.0664170752852062e-08 0.0000000000000000e+00  2.3839603793379764e-07 -1.6627456779005227e-08 0.0000000000000000e+00  2.4954283534836439e-07 -2.4707815962563747e-08 0.0000000000000000e+00  2.6556970791123689e-07 -3.5254468976738258e-08 0.0000000000000000e+00  2.8768560119355897e-07 -4.8539399172251204e-08 0.0000000000000000e+00  3.1703783614316379e-07 -6.4620238589102980e-08 0.0000000000000000e+00  3.5459064643900814e-07 -8.3085043490087019e-08 0.0000000000000000e+00  4.0087545004757163e-07 -1.0267122927815166e-07 0.0000000000000000e+00  4.5536894342213100e-07 -1.2043015391568330e-07 0.0000000000000000e+00  5.1414761945768560e-07 -1.3022893405633756e-07 0.0000000000000000e+00  5.5811661310709569e-07 -1.2052974095310005e-07 0.0000000000000000e+00  4.9756924980429490e-07 -7.3739734538980311e-08 0.0000000000000000e+00  0.0000000000000000e+00 0.0000000000000000e+00 0.0000000000000000e+00  5.8403152130992293e-07 9.7074006431421430e-08 0.0000000000000000e+00  0.0000000000000000e+00 0.0000000000000000e+00 0.0000000000000000e+00  6.7141066517438172e-07 1.5918192555508324e-07 0.0000000000000000e+00  6.5494408328782063e-07 1.7609132650751099e-07 0.0000000000000000e+00  6.1836851660717748e-07 1.6721141420888615e-07 0.0000000000000000e+00  5.7929726176594958e-07 1.4620985717467251e-07 0.0000000000000000e+00  5.4312113586532510e-07 1.2107656320241612e-07 0.0000000000000000e+00  5.1216330643385549e-07 9.6173388415258089e-08 0.0000000000000000e+00  4.8723894117710706e-07 7.3703852675680196e-08 0.0000000000000000e+00  4.6823651159503473e-07 5.4603021553983879e-08 0.0000000000000000e+00  4.5448261864396924e-07 3.9079254220177807e-08 0.0000000000000000e+00  4.4504747695884361e-07 2.6955508763498411e-08 0.0000000000000000e+00  4.3894010435129807e-07 1.7860944707672918e-08 0.0000000000000000e+00  4.3522179329236512e-07 1.1293718135786177e-08 0.0000000000000000e+00  4.3309778215325021e-07 6.6759554109055338e-09 0.0000000000000000e+00  4.3196696782597288e-07 3.3812431264124419e-09 0.0000000000000000e+00  4.3144872023953285e-07 7.5874488003295222e-10 0.0000000000000000e+00  4.3140844946494211e-07 -1.8512386218372951e-09 0.0000000000000000e+00  4.3196589693156679e-07 -5.1192903760368392e-09 0.0000000000000000e+00  4.3348010190158736e-07 -9.7101737015666980e-09 0.0000000000000000e+00  4.3653742952832945e-07 -1.6265465485532752e-08 0.0000000000000000e+00  4.4192535321055081e-07 -2.5389981752751571e-08 0.0000000000000000e+00  4.5056925502152701e-07 -3.7606628908915521e-08 0.0000000000000000e+00  4.6346389975978226e-07 -5.3288279008860858e-08 0.0000000000000000e+00  4.8157810783113739e-07 -7.2557345025602497e-08 0.0000000000000000e+00  5.0571499100825173e-07 -9.5090930192446268e-08 0.0000000000000000e+00  5.3635802210076668e-07 -1.1979852967655199e-07 0.0000000000000000e+00  5.7348389210078676e-07 -1.4429900999053975e-07 0.0000000000000000e+00  6.1610965472100725e-07 -1.6405695686359696e-07 0.0000000000000000e+00  6.6006693583967473e-07 -1.7112925735323101e-07 0.0000000000000000e+00  6.8545212576898343e-07 -1.5282421548089388e-07 0.0000000000000000e+00  5.9388281147456456e-07 -9.2813296679575143e-08 0.0000000000000000e+00  0.0000000000000000e+00 0.0000000000000000e+00 0.0000000000000000e+00  6.6714338081891766e-07 1.0291081642159311e-07 0.0000000000000000e+00  0.0000000000000000e+00 0.0000000000000000e+00 0.0000000000000000e+00  7.8055025744446134e-07 1.7348894868752859e-07 0.0000000000000000e+00  7.8061450652769463e-07 1.9883232070637525e-07 0.0000000000000000e+00  7.6148934962721619e-07 1.9454909607268081e-07 0.0000000000000000e+00  7.3974281065341695e-07 1.7409627856257268e-07 0.0000000000000000e+00  7.1931200162601871e-07 1.4656952323040769e-07 0.0000000000000000e+00  7.0182581481303647e-07 1.1761152167601193e-07 0.0000000000000000e+00  6.8805512815029265e-07 9.0476758201275667e-08 0.0000000000000000e+00  6.7812230980938778e-07 6.6844767236222854e-08 0.0000000000000000e+00  6.7166114653124778e-07 4.7388107282008666e-08 0.0000000000000000e+00  6.6801859259828880e-07 3.2156787419147467e-08 0.0000000000000000e+00  6.6641332609716446e-07 2.0821729788757338e-08 0.0000000000000000e+00  6.6605712578612458e-07 1.2811189625532765e-08 0.0000000000000000e+00  6.6625516175163931e-07 7.3992334658631443e-09 0.0000000000000000e+00  6.6647145636777355e-07 3.7651732911511543e-09 0.0000000000000000e+00  6.6636611815616503e-07 1.0353231558304167e-09 0.0000000000000000e+00  6.6581896882281091e-07 -1.6885651348052840e-09 0.0000000000000000e+00  6.6493830999384306e-07 -5.3092680727952274e-09 0.0000000000000000e+00  6.6404988718831886e-07 -1.0708266182719088e-08 0.0000000000000000e+00  6.6367843307085728e-07 -1.8713826829828105e-08 0.0000000000000000e+00  6.6450687116510270e-07 -3.0060984998601468e-08 0.0000000000000000e+00  6.6731601796442581e-07 -4.5322272478386230e-08 0.0000000000000000e+00  6.7290359648290626e-07 -6.4805219810848445e-08 0.0000000000000000e+00  6.8199064544006722e-07 -8.8400288756444504e-08 0.0000000000000000e+00  6.9511877156480002e-07 -1.1534003907058307e-07 0.0000000000000000e+00  7.1255872834221419e-07 -1.4383920368470903e-07 0.0000000000000000e+00  7.3426472753359365e-07 -1.7057407797949470e-07 0.0000000000000000e+00  7.5966065473452824e-07 -1.8996629143125125e-07 0.0000000000000000e+00  7.8558565387460619e-07 -1.9335039117707908e-07 0.0000000000000000e+00  7.9280788750201385e-07 -1.6843819588262764e-07 0.0000000000000000e+00  6.7560155600609649e-07 -1.0111880517425551e-07 0.0000000000000000e+00  0.0000000000000000e+00 0.0000000000000000e+00 0.0000000000000000e+00  7.4214163758628096e-07 1.0130973484707378e-07 0.0000000000000000e+00  0.0000000000000000e+00 0.0000000000000000e+00 0.0000000000000000e+00  8.7755910734068636e-07 1.7329627921487876e-07 0.0000000000000000e+00  8.9274748794879955e-07 2.0263242316996006e-07 0.0000000000000000e+00  8.9065448399261902e-07 2.0182391697776990e-07 0.0000000000000000e+00  8.8742085341326336e-07 1.8296869921738407e-07 0.0000000000000000e+00  8.8519196415584186e-07 1.5514412353322778e-07 0.0000000000000000e+00  8.8440698636740678e-07 1.2455334400187980e-07 0.0000000000000000e+00  8.8527898204885592e-07 9.5127236674739919e-08 0.0000000000000000e+00  8.8778540933172468e-07 6.9128933100719078e-08 0.0000000000000000e+00  8.9163467155603367e-07 4.7649916875608417e-08 0.0000000000000000e+00  8.9633699631462885e-07 3.0983942540802051e-08 0.0000000000000000e+00  9.0128865583294010e-07 1.8891547048289043e-08 0.0000000000000000e+00  9.0585999416462235e-07 1.0777983929767891e-08 0.0000000000000000e+00  9.0948311977642428e-07 5.8145970972056309e-09 0.0000000000000000e+00  9.1171406050763835e-07 3.0241636942289519e-09 0.0000000000000000e+00  9.1226995902577480e-07 1.3425920057307689e-09 0.0000000000000000e+00  9.1105153952959784e-07 -3.3448880686979390e-10 0.0000000000000000e+00  9.0814969252959579e-07 -3.1134204628605098e-09 0.0000000000000000e+00  9.0383940455454869e-07 -8.0610574691976952e-09 0.0000000000000000e+00  8.9855606979704345e-07 -1.6156837404436495e-08 0.0000000000000000e+00  8.9286242164991590e-07 -2.8228650388911613e-08 0.0000000000000000e+00  8.8738960342263286e-07 -4.4862271750585394e-08 0.0000000000000000e+00  8.8277157613271795e-07 -6.6271448886450534e-08 0.0000000000000000e+00  8.7958534290019559e-07 -9.2115907151776137e-08 0.0000000000000000e+00  8.7830519385634884e-07 -1.2124674956559486e-07 0.0000000000000000e+00  8.7930729672958345e-07 -1.5136058055719782e-07 0.0000000000000000e+00  8.8297853700688820e-07 -1.7855704542608408e-07 0.0000000000000000e+00  8.8968486849236065e-07 -1.9682834393759744e-07 0.0000000000000000e+00  8.9771916208363428e-07 -1.9760238063804464e-07 0.0000000000000000e+00  8.8860979665573872e-07 -1.6967993366363755e-07 0.0000000000000000e+00  7.4921514314577505e-07 -1.0109153140466868e-07 0.0000000000000000e+00  0.0000000000000000e+00 0.0000000000000000e+00 0.0000000000000000e+00  8.0983107647844003e-07 9.3295209175701136e-08 0.0000000000000000e+00  0.0000000000000000e+00 0.0000000000000000e+00 0.0000000000000000e+00  9.6500784783500705e-07 1.6077139556821443e-07 0.0000000000000000e+00  9.9379665447440373e-07 1.8952503409566320e-07 0.0000000000000000e+00  1.0076392528682056e-06 1.8984084181795949e-07 0.0000000000000000e+00  1.0224522611186662e-06 1.7223717304214841e-07 0.0000000000000000e+00  1.0387908921971051e-06 1.4514682195926294e-07 0.0000000000000000e+00  1.0557781085663431e-06 1.1473348595592910e-07 0.0000000000000000e+00  1.0728124528363489e-06 8.5169957145583686e-08 0.0000000000000000e+00  1.0894683094873227e-06 5.9031784441335505e-08 0.0000000000000000e+00  1.1053219347626710e-06 3.7680201430931101e-08 0.0000000000000000e+00  1.1199069500866264e-06 2.1587671795208175e-08 0.0000000000000000e+00  1.1327171211637384e-06 1.0593774966583733e-08 0.0000000000000000e+00  1.1432435803073938e-06 4.0963608596288455e-09 0.0000000000000000e+00  1.1510323265254004e-06 1.1926467566065141e-09 0.0000000000000000e+00  1.1557301379484945e-06 7.8331542506530491e-10 0.0000000000000000e+00  1.1571127109229248e-06 1.6512278765503580e-09 0.0000000000000000e+00  1.1551014449674894e-06 2.5240022308742528e-09 0.0000000000000000e+00  1.1497703619964364e-06 2.1290466084136543e-09 0.0000000000000000e+00  1.1413386058573303e-06 -7.5128284123994255e-10 0.0000000000000000e+00  1.1301575515013891e-06 -7.2147503985522903e-09 0.0000000000000000e+00  1.1166801452119240e-06 -1.8160021967119010e-08 0.0000000000000000e+00  1.1014263526187741e-06 -3.4178306529045802e-08 0.0000000000000000e+00  1.0849405458534361e-06 -5.5410007783411598e-08 0.0000000000000000e+00  1.0677764391469871e-06 -8.1356191511090186e-08 0.0000000000000000e+00  1.0505247970567235e-06 -1.1063397769856778e-07 0.0000000000000000e+00  1.0339079099586162e-06 -1.4067785096208757e-07 0.0000000000000000e+00  1.0190009068960804e-06 -1.6740318735938276e-07 0.0000000000000000e+00  1.0073000069637116e-06 -1.8487884471346119e-07 0.0000000000000000e+00  9.9855077326237661e-07 -1.8512223261502202e-07 0.0000000000000000e+00  9.7480514874092450e-07 -1.5825435506834886e-07 0.0000000000000000e+00  8.1573857174334746e-07 -9.4141449146947455e-08 0.0000000000000000e+00  0.0000000000000000e+00 0.0000000000000000e+00 0.0000000000000000e+00  8.6996714498354646e-07 7.9561726107929977e-08 0.0000000000000000e+00  0.0000000000000000e+00 0.0000000000000000e+00 0.0000000000000000e+00  1.0428830552062022e-06 1.3731438907693875e-07 0.0000000000000000e+00  1.0838642032191117e-06 1.6127795230771742e-07 0.0000000000000000e+00  1.1121820664605789e-06 1.6005859887091135e-07 0.0000000000000000e+00  1.1437403599073128e-06 1.4267461163157346e-07 0.0000000000000000e+00  1.1777580261931298e-06 1.1662211882800359e-07 0.0000000000000000e+00  1.2121166569963203e-06 8.7618530527072790e-08 0.0000000000000000e+00  1.2453390632571225e-06 5.9705580093008523e-08 0.0000000000000000e+00  1.2764703231644544e-06 3.5485895435252797e-08 0.0000000000000000e+00  1.3048206197793035e-06 1.6398332892811381e-08 0.0000000000000000e+00  1.3298348678351697e-06 2.9809308288153654e-09 0.0000000000000000e+00  1.3510240762242142e-06 -4.9018168061388334e-09 0.0000000000000000e+00  1.3679483096960585e-06 -7.8739126303641560e-09 0.0000000000000000e+00  1.3802376204805371e-06 -6.9025775202754541e-09 0.0000000000000000e+00  1.3876135065980645e-06 -3.1848138165776915e-09 0.0000000000000000e+00  1.3899023581696763e-06 1.9422239080255374e-09 0.0000000000000000e+00  1.3870445541688453e-06 7.0750802872356639e-09 0.0000000000000000e+00  1.3790974231323634e-06 1.0810278010224055e-08 0.0000000000000000e+00  1.3662340001437290e-06 1.1811776834326986e-08 0.0000000000000000e+00  1.3487323902914499e-06 8.8846651997663519e-09 0.0000000000000000e+00  1.3269691250024254e-06 1.0668873658216072e-09 0.0000000000000000e+00  1.3013976329482708e-06 -1.2257829199218852e-08 0.0000000000000000e+00  1.2725454941230713e-06 -3.1214024387927430e-08 0.0000000000000000e+00  1.2410477743679737e-06 -5.5254051022151215e-08 0.0000000000000000e+00  1.2077326129991711e-06 -8.2944174784968157e-08 0.0000000000000000e+00  1.1737919776725494e-06 -1.1172206535948701e-07 0.0000000000000000e+00  1.1410773190275535e-06 -1.3765534715943655e-07 0.0000000000000000e+00  1.1121922106979003e-06 -1.5525184625320765e-07 0.0000000000000000e+00  1.0881548678752106e-06 -1.5739663057264469e-07 0.0000000000000000e+00  1.0513346605338713e-06 -1.3556994336380597e-07 0.0000000000000000e+00  8.7485965201702245e-07 -8.1183761000360652e-08 0.0000000000000000e+00  0.0000000000000000e+00 0.0000000000000000e+00 0.0000000000000000e+00  9.2190300751439328e-07 6.0741908234251289e-08 0.0000000000000000e+00  0.0000000000000000e+00 0.0000000000000000e+00 0.0000000000000000e+00  1.1103717470487905e-06 1.0417268767797445e-07 0.0000000000000000e+00  1.1620396088520433e-06 1.1962149941316599e-07 0.0000000000000000e+00  1.2030789007075447e-06 1.1432247086793986e-07 0.0000000000000000e+00  1.2495070420370791e-06 9.5899109453207270e-08 0.0000000000000000e+00  1.2994493258230283e-06 7.0783179797416530e-08 0.0000000000000000e+00  1.3497077069258559e-06 4.3989701349624561e-08 0.0000000000000000e+00  1.3979827198509389e-06 1.9145840725529016e-08 0.0000000000000000e+00  1.4427688990070265e-06 -1.3682500253702693e-09 0.0000000000000000e+00  1.4830533628868046e-06 -1.6227524014685386e-08 0.0000000000000000e+00  1.5181282159284414e-06 -2.4958216899563956e-08 0.0000000000000000e+00  1.5474643320093256e-06 -2.7747018491233445e-08 0.0000000000000000e+00  1.5706467449797035e-06 -2.5275264312898392e-08 0.0000000000000000e+00  1.5873585468786991e-06 -1.8580531322114873e-08 0.0000000000000000e+00  1.5973764532217490e-06 -8.9438463619489056e-09 0.0000000000000000e+00  1.6005667873418980e-06 2.2028922507970377e-09 0.0000000000000000e+00  1.5968846716608239e-06 1.3355923548719631e-08 0.0000000000000000e+00  1.5863751807668112e-06 2.30119