<?xml version="1.0"?>
<VTKFile type="UnstructuredGrid"  version="0.1"  >
<UnstructuredGrid>
<Piece  NumberOfPoints="759" NumberOfCells="1408">
<Points>
<DataArray  type="Float64"  NumberOfComponents="3"  format="ascii">0 0.46875 0  0.03125 0.46875 0  0.03125 0.515625 0  0 0.515625 0  0.0625 0.46875 0  0.0625 0.515625 0  0.09375 0.46875 0  0.09375 0.515625 0  0.125 0.46875 0  0.125 0.515625 0  0.15625 0.46875 0  0.15625 0.515625 0  0.1875 0.46875 0  0.1875 0.515625 0  0.21875 0.46875 0  0.21875 0.515625 0  0.25 0.46875 0  0.25 0.515625 0  0.28125 0.46875 0  0.28125 0.515625 0  0.3125 0.46875 0  0.3125 0.515625 0  0.34375 0.46875 0  0.34375 0.515625 0  0.375 0.46875 0  0.375 0.515625 0  0.40625 0.46875 0  0.40625 0.515625 0  0.4375 0.46875 0  0.4375 0.515625 0  0.46875 0.46875 0  0.46875 0.515625 0  0.5 0.46875 0  0.5 0.515625 0  0.53125 0.46875 0  0.53125 0.515625 0  0.5625 0.46875 0  0.5625 0.515625 0  0.59375 0.46875 0  0.59375 0.515625 0  0.625 0.46875 0  0.625 0.515625 0  0.65625 0.46875 0  0.65625 0.515625 0  0.6875 0.46875 0  0.6875 0.515625 0  0.71875 0.46875 0  0.71875 0.515625 0  0.75 0.46875 0  0.75 0.515625 0  0.78125 0.46875 0  0.78125 0.515625 0  0.8125 0.46875 0  0.8125 0.515625 0  0.84375 0.46875 0  0.84375 0.515625 0  0.875 0.46875 0  0.875 0.515625 0  0.90625 0.46875 0  0.90625 0.515625 0  0.9375 0.46875 0  0.9375 0.515625 0  0.96875 0.46875 0  0.96875 0.515625 0  1 0.46875 0  1 0.515625 0  0.03125 0.5625 0  0 0.5625 0  0.0625 0.5625 0  0.09375 0.5625 0  0.125 0.5625 0  0.15625 0.5625 0  0.1875 0.5625 0  0.21875 0.5625 0  0.25 0.5625 0  0.28125 0.5625 0  0.3125 0.5625 0  0.34375 0.5625 0  0.375 0.5625 0  0.40625 0.5625 0  0.4375 0.5625 0  0.46875 0.5625 0  0.5 0.5625 0  0.53125 0.5625 0  0.5625 0.5625 0  0.59375 0.5625 0  0.625 0.5625 0  0.65625 0.5625 0  0.6875 0.5625 0  0.71875 0.5625 0  0.75 0.5625 0  0.78125 0.5625 0  0.8125 0.5625 0  0.84375 0.5625 0  0.875 0.5625 0  0.90625 0.5625 0  0.9375 0.5625 0  0.96875 0.5625 0  1 0.5625 0  0.03125 0.609375 0  0 0.609375 0  0.0625 0.609375 0  0.09375 0.609375 0  0.125 0.609375 0  0.15625 0.609375 0  0.1875 0.609375 0  0.21875 0.609375 0  0.25 0.609375 0  0.28125 0.609375 0  0.3125 0.609375 0  0.34375 0.609375 0  0.375 0.609375 0  0.40625 0.609375 0  0.4375 0.609375 0  0.46875 0.609375 0  0.5 0.609375 0  0.53125 0.609375 0  0.5625 0.609375 0  0.59375 0.609375 0  0.625 0.609375 0  0.65625 0.609375 0  0.6875 0.609375 0  0.71875 0.609375 0  0.75 0.609375 0  0.78125 0.609375 0  0.8125 0.609375 0  0.84375 0.609375 0  0.875 0.609375 0  0.90625 0.609375 0  0.9375 0.609375 0  0.96875 0.609375 0  1 0.609375 0  0.03125 0.65625 0  0 0.65625 0  0.0625 0.65625 0  0.09375 0.65625 0  0.125 0.65625 0  0.15625 0.65625 0  0.1875 0.65625 0  0.21875 0.65625 0  0.25 0.65625 0  0.28125 0.65625 0  0.3125 0.65625 0  0.34375 0.65625 0  0.375 0.65625 0  0.40625 0.65625 0  0.4375 0.65625 0  0.46875 0.65625 0  0.5 0.65625 0  0.53125 0.65625 0  0.5625 0.65625 0  0.59375 0.65625 0  0.625 0.65625 0  0.65625 0.65625 0  0.6875 0.65625 0  0.71875 0.65625 0  0.75 0.65625 0  0.78125 0.65625 0  0.8125 0.65625 0  0.84375 0.65625 0  0.875 0.65625 0  0.90625 0.65625 0  0.9375 0.65625 0  0.96875 0.65625 0  1 0.65625 0  0.03125 0.703125 0  0 0.703125 0  0.0625 0.703125 0  0.09375 0.703125 0  0.125 0.703125 0  0.15625 0.703125 0  0.1875 0.703125 0  0.21875 0.703125 0  0.25 0.703125 0  0.28125 0.703125 0  0.3125 0.703125 0  0.34375 0.703125 0  0.375 0.703125 0  0.40625 0.703125 0  0.4375 0.703125 0  0.46875 0.703125 0  0.5 0.703125 0  0.53125 0.703125 0  0.5625 0.703125 0  0.59375 0.703125 0  0.625 0.703125 0  0.65625 0.703125 0  0.6875 0.703125 0  0.71875 0.703125 0  0.75 0.703125 0  0.78125 0.703125 0  0.8125 0.703125 0  0.84375 0.703125 0  0.875 0.703125 0  0.90625 0.703125 0  0.9375 0.703125 0  0.96875 0.703125 0  1 0.703125 0  0.03125 0.75 0  0 0.75 0  0.0625 0.75 0  0.09375 0.75 0  0.125 0.75 0  0.15625 0.75 0  0.1875 0.75 0  0.21875 0.75 0  0.25 0.75 0  0.28125 0.75 0  0.3125 0.75 0  0.34375 0.75 0  0.375 0.75 0  0.40625 0.75 0  0.4375 0.75 0  0.46875 0.75 0  0.5 0.75 0  0.53125 0.75 0  0.5625 0.75 0  0.59375 0.75 0  0.625 0.75 0  0.65625 0.75 0  0.6875 0.75 0  0.71875 0.75 0  0.75 0.75 0  0.78125 0.75 0  0.8125 0.75 0  0.84375 0.75 0  0.875 0.75 0  0.90625 0.75 0  0.9375 0.75 0  0.96875 0.75 0  1 0.75 0  0.03125 0.796875 0  0 0.796875 0  0.0625 0.796875 0  0.09375 0.796875 0  0.125 0.796875 0  0.15625 0.796875 0  0.1875 0.796875 0  0.21875 0.796875 0  0.25 0.796875 0  0.28125 0.796875 0  0.3125 0.796875 0  0.34375 0.796875 0  0.375 0.796875 0  0.40625 0.796875 0  0.4375 0.796875 0  0.46875 0.796875 0  0.5 0.796875 0  0.53125 0.796875 0  0.5625 0.796875 0  0.59375 0.796875 0  0.625 0.796875 0  0.65625 0.796875 0  0.6875 0.796875 0  0.71875 0.796875 0  0.75 0.796875 0  0.78125 0.796875 0  0.8125 0.796875 0  0.84375 0.796875 0  0.875 0.796875 0  0.90625 0.796875 0  0.9375 0.796875 0  0.96875 0.796875 0  1 0.796875 0  0.03125 0.84375 0  0 0.84375 0  0.0625 0.84375 0  0.09375 0.84375 0  0.125 0.84375 0  0.15625 0.84375 0  0.1875 0.84375 0  0.21875 0.84375 0  0.25 0.84375 0  0.28125 0.84375 0  0.3125 0.84375 0  0.34375 0.84375 0  0.375 0.84375 0  0.40625 0.84375 0  0.4375 0.84375 0  0.46875 0.84375 0  0.5 0.84375 0  0.53125 0.84375 0  0.5625 0.84375 0  0.59375 0.84375 0  0.625 0.84375 0  0.65625 0.84375 0  0.6875 0.84375 0  0.71875 0.84375 0  0.75 0.84375 0  0.78125 0.84375 0  0.8125 0.84375 0  0.84375 0.84375 0  0.875 0.84375 0  0.90625 0.84375 0  0.9375 0.84375 0  0.96875 0.84375 0  1 0.84375 0  0.03125 0.890625 0  0 0.890625 0  0.0625 0.890625 0  0.09375 0.890625 0  0.125 0.890625 0  0.15625 0.890625 0  0.1875 0.890625 0  0.21875 0.890625 0  0.25 0.890625 0  0.28125 0.890625 0  0.3125 0.890625 0  0.34375 0.890625 0  0.375 0.890625 0  0.40625 0.890625 0  0.4375 0.890625 0  0.46875 0.890625 0  0.5 0.890625 0  0.53125 0.890625 0  0.5625 0.890625 0  0.59375 0.890625 0  0.625 0.890625 0  0.65625 0.890625 0  0.6875 0.890625 0  0.71875 0.890625 0  0.75 0.890625 0  0.78125 0.890625 0  0.8125 0.890625 0  0.84375 0.890625 0  0.875 0.890625 0  0.90625 0.890625 0  0.9375 0.890625 0  0.96875 0.890625 0  1 0.890625 0  0.03125 0.9375 0  0 0.9375 0  0.0625 0.9375 0  0.09375 0.9375 0  0.125 0.9375 0  0.15625 0.9375 0  0.1875 0.9375 0  0.21875 0.9375 0  0.25 0.9375 0  0.28125 0.9375 0  0.3125 0.9375 0  0.34375 0.9375 0  0.375 0.9375 0  0.40625 0.9375 0  0.4375 0.9375 0  0.46875 0.9375 0  0.5 0.9375 0  0.53125 0.9375 0  0.5625 0.9375 0  0.59375 0.9375 0  0.625 0.9375 0  0.65625 0.9375 0  0.6875 0.9375 0  0.71875 0.9375 0  0.75 0.9375 0  0.78125 0.9375 0  0.8125 0.9375 0  0.84375 0.9375 0  0.875 0.9375 0  0.90625 0.9375 0  0.9375 0.9375 0  0.96875 0.9375 0  1 0.9375 0  0.03125 0.984375 0  0 0.984375 0  0.0625 0.984375 0  0.09375 0.984375 0  0.125 0.984375 0  0.15625 0.984375 0  0.1875 0.984375 0  0.21875 0.984375 0  0.25 0.984375 0  0.28125 0.984375 0  0.3125 0.984375 0  0.34375 0.984375 0  0.375 0.984375 0  0.40625 0.984375 0  0.4375 0.984375 0  0.46875 0.984375 0  0.5 0.984375 0  0.53125 0.984375 0  0.5625 0.984375 0  0.59375 0.984375 0  0.625 0.984375 0  0.65625 0.984375 0  0.6875 0.984375 0  0.71875 0.984375 0  0.75 0.984375 0  0.78125 0.984375 0  0.8125 0.984375 0  0.84375 0.984375 0  0.875 0.984375 0  0.90625 0.984375 0  0.9375 0.984375 0  0.96875 0.984375 0  1 0.984375 0  0.03125 1.03125 0  0 1.03125 0  0.0625 1.03125 0  0.09375 1.03125 0  0.125 1.03125 0  0.15625 1.03125 0  0.1875 1.03125 0  0.21875 1.03125 0  0.25 1.03125 0  0.28125 1.03125 0  0.3125 1.03125 0  0.34375 1.03125 0  0.375 1.03125 0  0.40625 1.03125 0  0.4375 1.03125 0  0.46875 1.03125 0  0.5 1.03125 0  0.53125 1.03125 0  0.5625 1.03125 0  0.59375 1.03125 0  0.625 1.03125 0  0.65625 1.03125 0  0.6875 1.03125 0  0.71875 1.03125 0  0.75 1.03125 0  0.78125 1.03125 0  0.8125 1.03125 0  0.84375 1.03125 0  0.875 1.03125 0  0.90625 1.03125 0  0.9375 1.03125 0  0.96875 1.03125 0  1 1.03125 0  0.03125 1.078125 0  0 1.078125 0  0.0625 1.078125 0  0.09375 1.078125 0  0.125 1.078125 0  0.15625 1.078125 0  0.1875 1.078125 0  0.21875 1.078125 0  0.25 1.078125 0  0.28125 1.078125 0  0.3125 1.078125 0  0.34375 1.078125 0  0.375 1.078125 0  0.40625 1.078125 0  0.4375 1.078125 0  0.46875 1.078125 0  0.5 1.078125 0  0.53125 1.078125 0  0.5625 1.078125 0  0.59375 1.078125 0  0.625 1.078125 0  0.65625 1.078125 0  0.6875 1.078125 0  0.71875 1.078125 0  0.75 1.078125 0  0.78125 1.078125 0  0.8125 1.078125 0  0.84375 1.078125 0  0.875 1.078125 0  0.90625 1.078125 0  0.9375 1.078125 0  0.96875 1.078125 0  1 1.078125 0  0.03125 1.125 0  0 1.125 0  0.0625 1.125 0  0.09375 1.125 0  0.125 1.125 0  0.15625 1.125 0  0.1875 1.125 0  0.21875 1.125 0  0.25 1.125 0  0.28125 1.125 0  0.3125 1.125 0  0.34375 1.125 0  0.375 1.125 0  0.40625 1.125 0  0.4375 1.125 0  0.46875 1.125 0  0.5 1.125 0  0.53125 1.125 0  0.5625 1.125 0  0.59375 1.125 0  0.625 1.125 0  0.65625 1.125 0  0.6875 1.125 0  0.71875 1.125 0  0.75 1.125 0  0.78125 1.125 0  0.8125 1.125 0  0.84375 1.125 0  0.875 1.125 0  0.90625 1.125 0  0.9375 1.125 0  0.96875 1.125 0  1 1.125 0  0.03125 1.171875 0  0 1.171875 0  0.0625 1.171875 0  0.09375 1.171875 0  0.125 1.171875 0  0.15625 1.171875 0  0.1875 1.171875 0  0.21875 1.171875 0  0.25 1.171875 0  0.28125 1.171875 0  0.3125 1.171875 0  0.34375 1.171875 0  0.375 1.171875 0  0.40625 1.171875 0  0.4375 1.171875 0  0.46875 1.171875 0  0.5 1.171875 0  0.53125 1.171875 0  0.5625 1.171875 0  0.59375 1.171875 0  0.625 1.171875 0  0.65625 1.171875 0  0.6875 1.171875 0  0.71875 1.171875 0  0.75 1.171875 0  0.78125 1.171875 0  0.8125 1.171875 0  0.84375 1.171875 0  0.875 1.171875 0  0.90625 1.171875 0  0.9375 1.171875 0  0.96875 1.171875 0  1 1.171875 0  0.03125 1.21875 0  0 1.21875 0  0.0625 1.21875 0  0.09375 1.21875 0  0.125 1.21875 0  0.15625 1.21875 0  0.1875 1.21875 0  0.21875 1.21875 0  0.25 1.21875 0  0.28125 1.21875 0  0.3125 1.21875 0  0.34375 1.21875 0  0.375 1.21875 0  0.40625 1.21875 0  0.4375 1.21875 0  0.46875 1.21875 0  0.5 1.21875 0  0.53125 1.21875 0  0.5
[...]
<PointData  Vectors="u"> 
<DataArray  type="Float64"  Name="u"  NumberOfComponents="3" format="ascii">1.4116432342148350e-02 7.1453031357318392e-04 0.0000000000000000e+00  1.6277632333926088e-02 3.9893780027397876e-03 0.0000000000000000e+00  1.7909184855460579e-02 4.2714707438405710e-03 0.0000000000000000e+00  1.5337499411835211e-02 9.3240417894885819e-04 0.0000000000000000e+00  1.5726516700012513e-02 7.2649819139043760e-03 0.0000000000000000e+00  1.7523789862615741e-02 7.8604681268499999e-03 0.0000000000000000e+00  1.4635536877481460e-02 1.0194542719625787e-02 0.0000000000000000e+00  1.6218994540236391e-02 1.1032442254760641e-02 0.0000000000000000e+00  1.3206400532384900e-02 1.2658627980332951e-02 0.0000000000000000e+00  1.4558945244015022e-02 1.3675928364395875e-02 0.0000000000000000e+00  1.1547101959457655e-02 1.4591536780716676e-02 0.0000000000000000e+00  1.2696915775398297e-02 1.5729369934672749e-02 0.0000000000000000e+00  9.7473298808138081e-03 1.5948992880042753e-02 0.0000000000000000e+00  1.0722007784339677e-02 1.7154415005134933e-02 0.0000000000000000e+00  7.8853742525539696e-03 1.6706953167151900e-02 0.0000000000000000e+00  8.7092182059468788e-03 1.7933099305836055e-02 0.0000000000000000e+00  6.0301996238437622e-03 1.6861321243166822e-02 0.0000000000000000e+00  6.7245204605922287e-03 1.8066910175539422e-02 0.0000000000000000e+00  4.2424146476795219e-03 1.6426730793528427e-02 0.0000000000000000e+00  4.8257855987010687e-03 1.7575657569838449e-02 0.0000000000000000e+00  2.5748715251100226e-03 1.5434920336159378e-02 0.0000000000000000e+00  3.0635960196039318e-03 1.6495838996954792e-02 0.0000000000000000e+00  1.0731719462425356e-03 1.3932783102032460e-02 0.0000000000000000e+00  1.4814499077030834e-03 1.4878832790032914e-02 0.0000000000000000e+00  -2.2396618955534132e-04 1.1980389227090400e-02 0.0000000000000000e+00  1.1631945496331024e-04 1.2788894699781689e-02 0.0000000000000000e+00  -1.2843226583842057e-03 9.6489071896587539e-03 0.0000000000000000e+00  -1.0011902342430743e-03 1.0301209860564231e-02 0.0000000000000000e+00  -2.0819526246093961e-03 7.0186136420461176e-03 0.0000000000000000e+00  -1.8465065141485019e-03 7.4998847007867915e-03 0.0000000000000000e+00  -2.5969819033337888e-03 4.1768692534353558e-03 0.0000000000000000e+00  -2.4010515169056302e-03 4.4760497794078683e-03 0.0000000000000000e+00  -2.8154854746409541e-03 1.2161790489979465e-03 0.0000000000000000e+00  -2.6520282998324933e-03 1.3259226416860734e-03 0.0000000000000000e+00  -2.7294239844915377e-03 -1.7677814990470666e-03 0.0000000000000000e+00  -2.5925242575670499e-03 -1.8510454896572713e-03 0.0000000000000000e+00  -2.3367034677355043e-03 -4.6781136507219497e-03 0.0000000000000000e+00  -2.2215425091280765e-03 -4.9540947446628861e-03 0.0000000000000000e+00  -1.6412670086446337e-03 -7.4187235645341255e-03 0.0000000000000000e+00  -1.5442395589220317e-03 -7.8830778570488091e-03 0.0000000000000000e+00  -6.5326730669330998e-04 -9.8963927286136021e-03 0.0000000000000000e+00  -5.7211191344695256e-04 -1.0540506551228694e-02 0.0000000000000000e+00  6.1070173829774104e-04 -1.2022983650356835e-02 0.0000000000000000e+00  6.7657307110734568e-04 -1.2833669210622999e-02 0.0000000000000000e+00  2.1273041654318444e-03 -1.3717732001619139e-02 0.0000000000000000e+00  2.1764295258906562e-03 -1.4676918189149958e-02 0.0000000000000000e+00  3.8662120070503004e-03 -1.4909700000410295e-02 0.0000000000000000e+00  3.8944614131501392e-03 -1.5994059465505615e-02 0.0000000000000000e+00  5.7898122946023842e-03 -1.5540305053880744e-02 0.0000000000000000e+00  5.7896941912396393e-03 -1.6720902158159027e-02 0.0000000000000000e+00  7.8529814092185620e-03 -1.5565957282326405e-02 0.0000000000000000e+00  7.8126647315739633e-03 -1.6807853841519720e-02 0.0000000000000000e+00  1.0002701133311576e-02 -1.4960692436294516e-02 0.0000000000000000e+00  9.9050327490072098e-03 -1.6222563697782581e-02 0.0000000000000000e+00  1.2176826560646193e-02 -1.3718813812683478e-02 0.0000000000000000e+00  1.1998413244191581e-02 -1.4952464795192124e-02 0.0000000000000000e+00  1.4298473539141718e-02 -1.1857600617182979e-02 0.0000000000000000e+00  1.4010380500978329e-02 -1.3007272272542619e-02 0.0000000000000000e+00  1.6249758592026049e-02 -9.4211200824490041e-03 0.0000000000000000e+00  1.5825453278464935e-02 -1.0422013100418456e-02 0.0000000000000000e+00  1.7752561499668629e-02 -6.4918258723602584e-03 0.0000000000000000e+00  1.7208718026941162e-02 -7.2656195372581816e-03 0.0000000000000000e+00  1.7927560130145112e-02 -3.2623812482739578e-03 0.0000000000000000e+00  1.7459877790924880e-02 -3.6937794420851310e-03 0.0000000000000000e+00  1.5189932224506852e-02 -3.0009056037514265e-04 0.0000000000000000e+00  1.4590410487203040e-02 -4.1159108493394540e-04 0.0000000000000000e+00  1.9809777682743904e-02 5.0661606560406906e-03 0.0000000000000000e+00  1.7169940916798694e-02 1.3983244950713017e-03 0.0000000000000000e+00  1.9303897688852795e-02 9.3118353607109846e-03 0.0000000000000000e+00  1.7925764784405392e-02 1.3011049214626961e-02 0.0000000000000000e+00  1.6157663203257601e-02 1.6036899979006144e-02 0.0000000000000000e+00  1.4169023399030759e-02 1.8340875180209777e-02 0.0000000000000000e+00  1.2062219134914162e-02 1.9898573383920860e-02 0.0000000000000000e+00  9.9185362437961434e-03 2.0705305953361133e-02 0.0000000000000000e+00  7.8081148018415017e-03 2.0775173153902912e-02 0.0000000000000000e+00  5.7924643507909672e-03 2.0139762405259800e-02 0.0000000000000000e+00  3.9246327384503408e-03 1.8846635588530215e-02 0.0000000000000000e+00  2.2501979982871897e-03 1.6957469406000136e-02 0.0000000000000000e+00  8.0732691140689356e-04 1.4546247761104535e-02 0.0000000000000000e+00  -3.7233217734016996e-04 1.1697286254972832e-02 0.0000000000000000e+00  -1.2637185971790272e-03 8.5034656046876957e-03 0.0000000000000000e+00  -1.8477042271100390e-03 5.0643505556268774e-03 0.0000000000000000e+00  -2.1112064908716983e-03 1.4845284691816227e-03 0.0000000000000000e+00  -2.0468932929446344e-03 -2.1281804997334381e-03 0.0000000000000000e+00  -1.6535156451939804e-03 -5.6643683583109099e-03 0.0000000000000000e+00  -9.3588884535636733e-04 -9.0148694649304986e-03 0.0000000000000000e+00  9.4556247182726145e-05 -1.2072559319567234e-02 0.0000000000000000e+00  1.4194866239541821e-03 -1.4734389928759639e-02 0.0000000000000000e+00  3.0128806942353063e-03 -1.6903490250018093e-02 0.0000000000000000e+00  4.8406433776113358e-03 -1.8491518606251475e-02 0.0000000000000000e+00  6.8597322458754089e-03 -1.9421093255431211e-02 0.0000000000000000e+00  9.0177479205335934e-03 -1.9628396442838307e-02 0.0000000000000000e+00  1.1252059983297782e-02 -1.9065731860403348e-02 0.0000000000000000e+00  1.3488731122397020e-02 -1.7704040758666741e-02 0.0000000000000000e+00  1.5637754878704956e-02 -1.5535239301973661e-02 0.0000000000000000e+00  1.7572035815542671e-02 -1.2575170892895574e-02 0.0000000000000000e+00  1.9028149824896954e-02 -8.8734054347084351e-03 0.0000000000000000e+00  1.9188186505699284e-02 -4.5895633231078864e-03 0.0000000000000000e+00  1.5681234103871840e-02 -8.5876864540513622e-04 0.0000000000000000e+00  2.2684937633136677e-02 6.0281043558857933e-03 0.0000000000000000e+00  1.9756222731056924e-02 1.8639427721109602e-03 0.0000000000000000e+00  2.2100880658189524e-02 1.1038736892286476e-02 0.0000000000000000e+00  2.0603395705412236e-02 1.5355395593008837e-02 0.0000000000000000e+00  1.8691620509679468e-02 1.8829805738053249e-02 0.0000000000000000e+00  1.6542566947624321e-02 2.1425904051871031e-02 0.0000000000000000e+00  1.4266200588578637e-02 2.3135433626301275e-02 0.0000000000000000e+00  1.1951719482848113e-02 2.3969950121426373e-02 0.0000000000000000e+00  9.6763803056173579e-03 2.3959050112428062e-02 0.0000000000000000e+00  7.5065183066785786e-03 2.3148954096357966e-02 0.0000000000000000e+00  5.4994777545589544e-03 2.1600802026509502e-02 0.0000000000000000e+00  3.7032349775099659e-03 1.9388910645248659e-02 0.0000000000000000e+00  2.1581913726267574e-03 1.6598854469490162e-02 0.0000000000000000e+00  8.9684748017867036e-04 1.3325770306630515e-02 0.0000000000000000e+00  -5.4664354809979632e-05 9.6725418189164067e-03 0.0000000000000000e+00  -6.7695877741685243e-04 5.7483305385574246e-03 0.0000000000000000e+00  -9.5623346792290953e-04 1.6669324372831438e-03 0.0000000000000000e+00  -8.8486457982290970e-04 -2.4545273038359076e-03 0.0000000000000000e+00  -4.6081966069130967e-04 -6.4971633584885377e-03 0.0000000000000000e+00  3.1152090071267082e-04 -1.0341682279811254e-02 0.0000000000000000e+00  1.4214341274514891e-03 -1.3870080986353509e-02 0.0000000000000000e+00  2.8506774116815762e-03 -1.6967289490362095e-02 0.0000000000000000e+00  4.5731648598562264e-03 -1.9523192741030568e-02 0.0000000000000000e+00  6.5536091318155213e-03 -2.1434726962959574e-02 0.0000000000000000e+00  8.7470443721203717e-03 -2.2608304602040132e-02 0.0000000000000000e+00  1.1097446764084050e-02 -2.2962315317243725e-02 0.0000000000000000e+00  1.3537281570956060e-02 -2.2429776271586106e-02 0.0000000000000000e+00  1.5985473630238150e-02 -2.0960898780710974e-02 0.0000000000000000e+00  1.8342380542491092e-02 -1.8525691656657611e-02 0.0000000000000000e+00  2.0464036485150307e-02 -1.5117586888255263e-02 0.0000000000000000e+00  2.2041965090000244e-02 -1.0767064525049058e-02 0.0000000000000000e+00  2.2093522136617423e-02 -5.6509501997112788e-03 0.0000000000000000e+00  1.7841461559860307e-02 -1.3598290687552382e-03 0.0000000000000000e+00  2.6554455148766230e-02 7.0926609475809857e-03 0.0000000000000000e+00  2.3140683732157333e-02 2.3477435188573688e-03 0.0000000000000000e+00  2.5920252963991270e-02 1.2945502217825720e-02 0.0000000000000000e+00  2.4291421675892717e-02 1.7936804256881805e-02 0.0000000000000000e+00  2.2217046012744657e-02 2.1897846321870106e-02 0.0000000000000000e+00  1.9887288394052082e-02 2.4806919307738477e-02 0.0000000000000000e+00  1.7422403271218030e-02 2.6674064069453281e-02 0.0000000000000000e+00  1.4920940425125057e-02 2.7529528585495820e-02 0.0000000000000000e+00  1.2466664333384633e-02 2.7420999402038022e-02 0.0000000000000000e+00  1.0132049030225354e-02 2.6411762323955736e-02 0.0000000000000000e+00  7.9775890618320171e-03 2.4578759061005713e-02 0.0000000000000000e+00  6.0544578649434060e-03 2.2010695678244284e-02 0.0000000000000000e+00  4.4037159700889023e-03 1.8806199517896000e-02 0.0000000000000000e+00  3.0592055248210765e-03 1.5072088888248885e-02 0.0000000000000000e+00  2.0465683526849025e-03 1.0921926263749746e-02 0.0000000000000000e+00  1.3858657405662381e-03 6.4745793313783807e-03 0.0000000000000000e+00  1.0904389612780548e-03 1.8531869117852423e-03 0.0000000000000000e+00  1.1688337983836704e-03 -2.8160739885681424e-03 0.0000000000000000e+00  1.6232944279817947e-03 -7.4048225071163300e-03 0.0000000000000000e+00  2.4508689926817976e-03 -1.1783720176984973e-02 0.0000000000000000e+00  3.6415667368797883e-03 -1.5823472554378035e-02 0.0000000000000000e+00  5.1785704883351357e-03 -1.9396359521486811e-02 0.0000000000000000e+00  7.0360752211960148e-03 -2.2377748777299814e-02 0.0000000000000000e+00  9.1790024392288064e-03 -2.4648128893698263e-02 0.0000000000000000e+00  1.1560774196100755e-02 -2.6095308492122351e-02 0.0000000000000000e+00  1.4122808572857403e-02 -2.6617001888321491e-02 0.0000000000000000e+00  1.6792561842679903e-02 -2.6123586152809162e-02 0.0000000000000000e+00  1.9482153996708960e-02 -2.4541027606823189e-02 0.0000000000000000e+00  2.2081265928540057e-02 -2.1814081156930235e-02 0.0000000000000000e+00  2.4426769524485505e-02 -1.7911230692485701e-02 0.0000000000000000e+00  2.6155280770476706e-02 -1.2843122347959895e-02 0.0000000000000000e+00  2.6081713808986353e-02 -6.8066284669798614e-03 0.0000000000000000e+00  2.0887034651480695e-02 -1.8581567263507373e-03 0.0000000000000000e+00  3.1464628648865907e-02 8.2557357068417277e-03 0.0000000000000000e+00  2.7365476464746231e-02 2.8712419655305974e-03 0.0000000000000000e+00  3.0808039558405158e-02 1.5022639073267207e-02 0.0000000000000000e+00  2.9043971017923602e-02 2.0740647302151811e-02 0.0000000000000000e+00  2.6801075090521580e-02 2.5220805885179217e-02 0.0000000000000000e+00  2.4288868125995129e-02 2.8457639055822326e-02 0.0000000000000000e+00  2.1639596041648217e-02 3.0482348916849891e-02 0.0000000000000000e+00  1.8959858838083245e-02 3.1346886761572913e-02 0.0000000000000000e+00  1.6340715722345855e-02 3.1120147727508936e-02 0.0000000000000000e+00  1.3858193766042262e-02 2.9885288265995642e-02 0.0000000000000000e+00  1.1576327905881242e-02 2.7737543650143061e-02 0.0000000000000000e+00  9.5462475318629468e-03 2.4781938906787669e-02 0.0000000000000000e+00  7.8100503175685928e-03 2.1131520698929158e-02 0.0000000000000000e+00  6.3995841428214750e-03 1.6905631981968532e-02 0.0000000000000000e+00  5.3406274382558541e-03 1.2228715746314284e-02 0.0000000000000000e+00  4.6510329172606514e-03 7.2292881376811811e-03 0.0000000000000000e+00  4.3447411460489430e-03 2.0391959661884241e-03 0.0000000000000000e+00  4.4292263438715550e-03 -3.2068541136647611e-03 0.0000000000000000e+00  4.9085436821178739e-03 -8.3718682530259936e-03 0.0000000000000000e+00  5.7803284897831137e-03 -1.3316866267607507e-02 0.0000000000000000e+00  7.0375179609955671e-03 -1.7901657683025568e-02 0.0000000000000000e+00  8.6649911802024453e-03 -2.1985510331615974e-02 0.0000000000000000e+00  1.0639889604012251e-02 -2.5428493107575535e-02 0.0000000000000000e+00  1.2928329749093579e-02 -2.8092990826678422e-02 0.0000000000000000e+00  1.5484849094865111e-02 -2.9845872175310147e-02 0.0000000000000000e+00  1.8249470592712241e-02 -3.0561051408326281e-02 0.0000000000000000e+00  2.1146857113312996e-02 -3.0122535628105528e-02 0.0000000000000000e+00  2.4082953181707237e-02 -2.8427912817176298e-02 0.0000000000000000e+00  2.6937487440410034e-02 -2.5392449117333744e-02 0.0000000000000000e+00  2.9525867697442015e-02 -2.0955801399515001e-02 0.0000000000000000e+00  3.1419697901427568e-02 -1.5105864577635677e-02 0.0000000000000000e+00  3.1186011542887790e-02 -8.0601374328823586e-03 0.0000000000000000e+00  2.4808118315198094e-02 -2.3729756452591307e-03 0.0000000000000000e+00  3.7508565612327419e-02 9.5176876724201286e-03 0.0000000000000000e+00  3.2504282860495219e-02 3.4512692478754648e-03 0.0000000000000000e+00  3.6862351038678215e-02 1.7266441094607583e-02 0.0000000000000000e+00  3.4968589923389116e-02 2.3757673187283210e-02 0.0000000000000000e+00  3.2565062939849926e-02 2.8781609201781830e-02 0.0000000000000000e+00  2.9887556786292579e-02 3.2352232576588473e-02 0.0000000000000000e+00  2.7080092331208148e-02 3.4525676005239564e-02 0.0000000000000000e+00  2.4257528149873621e-02 3.5379699525925713e-02 0.0000000000000000e+00  2.1515135601976161e-02 3.5008191138560844e-02 0.0000000000000000e+00  1.8931832674680918e-02 3.3517743337200527e-02 0.0000000000000000e+00  1.6570722043471795e-02 3.1024619113167513e-02 0.0000000000000000e+00  1.4482318389560008e-02 2.7652383001119597e-02 0.0000000000000000e+00  1.2704625400330780e-02 2.3529710189153615e-02 0.0000000000000000e+00  1.1267730843915967e-02 1.8789097781624860e-02 0.0000000000000000e+00  1.0192541980738977e-02 1.3565649248728153e-02 0.0000000000000000e+00  9.4961149304432033e-03 7.9968057596766506e-03 0.0000000000000000e+00  9.1888429941837432e-03 2.2219758040179591e-03 0.0000000000000000e+00  9.2796358904805032e-03 -3.6171080118611800e-03 0.0000000000000000e+00  9.7716572372868113e-03 -9.3762170912172968e-03 0.0000000000000000e+00  1.0666436393680489e-02 -1.4908226848793671e-02 0.0000000000000000e+00  1.1958981525646315e-02 -2.0062896659274257e-02 0.0000000000000000e+00  1.3639744873486993e-02 -2.4687041061576046e-02 0.0000000000000000e+00  1.5689764940861071e-02 -2.8624956246025245e-02 0.0000000000000000e+00  1.8080564167898397e-02 -3.1719689644101837e-02 0.0000000000000000e+00  2.0769925281275806e-02 -3.3814777378702837e-02 0.0000000000000000e+00  2.3700464253677854e-02 -3.4756931440128369e-02 0.0000000000000000e+00  2.6796352234911391e-02 -3.4399388427911022e-02 0.0000000000000000e+00  2.9960236256760864e-02 -3.2606135825400000e-02 0.0000000000000000e+00  3.3062774085900040e-02 -2.9257229857860563e-02 0.0000000000000000e+00  3.5896635922574249e-02 -2.4257602720970647e-02 0.0000000000000000e+00  3.7956692832092249e-02 -1.7567131952248613e-02 0.0000000000000000e+00  3.7509710483082777e-02 -9.4232648919181164e-03 0.0000000000000000e+00  2.9663579202559087e-02 -2.9289516592850818e-03 0.0000000000000000e+00  4.4816295908906893e-02 1.0874310740388724e-02 0.0000000000000000e+00  3.8657594705127404e-02 4.1014115438615592e-03 0.0000000000000000e+00  4.4222314582161248e-02 1.9664292306653230e-02 0.0000000000000000e+00  4.2214822226915152e-02 2.6963461727926730e-02 0.0000000000000000e+00  3.9674136266376760e-02 3.2541461700100617e-02 0.0000000000000000e+00  3.6868400898449824e-02 3.6436615511876672e-02 0.0000000000000000e+00  3.3954143381139529e-02 3.8735507197419528e-02 0.0000000000000000e+00  3.1052380142212028e-02 3.9547184589505020e-02 0.0000000000000000e+00  2.8260435198798006e-02 3.8995590192945476e-02 0.0000000000000000e+00  2.5655615994205357e-02 3.7214987731999195e-02 0.0000000000000000e+00  2.3297347451533522e-02 3.4346052377930342e-02 0.0000000000000000e+00  2.1229640535431023e-02 3.0533000259740539e-02 0.0000000000000000e+00  1.9484544427361635e-02 2.5921387870362279e-02 0.0000000000000000e+00  1.8083928981767104e-02 2.0656745408282558e-02 0.0000000000000000e+00  1.7043956552196982e-02 1.4884163832721920e-02 0.0000000000000000e+00  1.6374692598687794e-02 8.7481574888377666e-03 0.0000000000000000e+00  1.6085468486042399e-02 2.3936997627136622e-03 0.0000000000000000e+00  1.6181660744563481e-02 -4.0331428970020195e-03 0.0000000000000000e+00  1.6669888380735836e-02 -1.0383421431933788e-02 0.0000000000000000e+00  1.7552698241070565e-02 -1.6504369879681610e-02 0.0000000000000000e+00  1.8832424040287437e-02 -2.2237816021167242e-02 0.0000000000000000e+00  2.0504946120608852e-02 -2.7419434517949599e-02 0.0000000000000000e+00  2.2560813146357682e-02 -3.1878347595262889e-02 0.0000000000000000e+00  2.4979480094362256e-02 -3.5437415478945862e-02 0.0000000000000000e+00  2.7727693189131614e-02 -3.7914802516712719e-02 0.0000000000000000e+00  3.0754723931582486e-02 -3.9126288833432339e-02 0.0000000000000000e+00  3.3989340617572743e-02 -3.8889196254376500e-02 0.0000000000000000e+00  3.7334576001195677e-02 -3.7027302281064538e-02 0.0000000000000000e+00  4.0654747526952008e-02 -3.3377761661256278e-02 0.0000000000000000e+00  4.3718811240616703e-02 -2.7802400785870200e-02 0.0000000000000000e+00  4.5932227137291559e-02 -2.0225010968068717e-02 0.0000000000000000e+00  4.5200827769898554e-02 -1.0900636134295432e-02 0.0000000000000000e+00  3.5551857897391445e-02 -3.5458894491601396e-03 0.0000000000000000e+00  5.3548337953811226e-02 1.2315009209882542e-02 0.0000000000000000e+00  4.5947456716505596e-02 4.8334430156671254e-03 0.0000000000000000e+00  5.3059530464662455e-02 2.2190230043235237e-02 0.0000000000000000e+00  5.0966402206551992e-02 3.0312358574872838e-02 0.0000000000000000e+00  4.8329667199479620e-02 3.6432096769029851e-02 0.0000000000000000e+00  4.5456562837404971e-02 4.0619313011894191e-02 0.0000000000000000e+00  4.2516078231916533e-02 4.2999041829251426e-02 0.0000000000000000e+00  3.9632684337450409e-02 4.3719037831673947e-02 0.0000000000000000e+00  3.6901502413787313e-02 4.2940033396153009e-02 0.0000000000000000e+00  3.4393222658276060e-02 4.0829174313569465e-02 0.0000000000000000e+00  3.2157506905710315e-02 3.7555467314036250e-02 0.0000000000000000e+00  3.0226799609693281e-02 3.3285951865836425e-02 0.0000000000000000e+00  2.8620512672098544e-02 2.8183770151241058e-02 0.0000000000000000e+00  2.7349038418853406e-02 2.2406861990598465e-02 0.0000000000000000e+00  2.6417161056900902e-02 1.6108240007405124e-02 0.0000000000000000e+00  2.5827623313715103e-02 9.4369045158163179e-03 0.0000000000000000e+00  2.5582640920783852e-02 2.5394640665666840e-03 0.0000000000000000e+00  2.5686989844277228e-02 -4.4373000872428014e-03 0.0000000000000000e+00  