<?xml version="1.0"?>
<VTKFile type="UnstructuredGrid"  version="0.1"  >
<UnstructuredGrid>
<Piece  NumberOfPoints="759" NumberOfCells="1408">
<Points>
<DataArray  type="Float64"  NumberOfComponents="3"  format="ascii">0 0.46875 0  0.03125 0.46875 0  0.03125 0.515625 0  0 0.515625 0  0.0625 0.46875 0  0.0625 0.515625 0  0.09375 0.46875 0  0.09375 0.515625 0  0.125 0.46875 0  0.125 0.515625 0  0.15625 0.46875 0  0.15625 0.515625 0  0.1875 0.46875 0  0.1875 0.515625 0  0.21875 0.46875 0  0.21875 0.515625 0  0.25 0.46875 0  0.25 0.515625 0  0.28125 0.46875 0  0.28125 0.515625 0  0.3125 0.46875 0  0.3125 0.515625 0  0.34375 0.46875 0  0.34375 0.515625 0  0.375 0.46875 0  0.375 0.515625 0  0.40625 0.46875 0  0.40625 0.515625 0  0.4375 0.46875 0  0.4375 0.515625 0  0.46875 0.46875 0  0.46875 0.515625 0  0.5 0.46875 0  0.5 0.515625 0  0.53125 0.46875 0  0.53125 0.515625 0  0.5625 0.46875 0  0.5625 0.515625 0  0.59375 0.46875 0  0.59375 0.515625 0  0.625 0.46875 0  0.625 0.515625 0  0.65625 0.46875 0  0.65625 0.515625 0  0.6875 0.46875 0  0.6875 0.515625 0  0.71875 0.46875 0  0.71875 0.515625 0  0.75 0.46875 0  0.75 0.515625 0  0.78125 0.46875 0  0.78125 0.515625 0  0.8125 0.46875 0  0.8125 0.515625 0  0.84375 0.46875 0  0.84375 0.515625 0  0.875 0.46875 0  0.875 0.515625 0  0.90625 0.46875 0  0.90625 0.515625 0  0.9375 0.46875 0  0.9375 0.515625 0  0.96875 0.46875 0  0.96875 0.515625 0  1 0.46875 0  1 0.515625 0  0.03125 0.5625 0  0 0.5625 0  0.0625 0.5625 0  0.09375 0.5625 0  0.125 0.5625 0  0.15625 0.5625 0  0.1875 0.5625 0  0.21875 0.5625 0  0.25 0.5625 0  0.28125 0.5625 0  0.3125 0.5625 0  0.34375 0.5625 0  0.375 0.5625 0  0.40625 0.5625 0  0.4375 0.5625 0  0.46875 0.5625 0  0.5 0.5625 0  0.53125 0.5625 0  0.5625 0.5625 0  0.59375 0.5625 0  0.625 0.5625 0  0.65625 0.5625 0  0.6875 0.5625 0  0.71875 0.5625 0  0.75 0.5625 0  0.78125 0.5625 0  0.8125 0.5625 0  0.84375 0.5625 0  0.875 0.5625 0  0.90625 0.5625 0  0.9375 0.5625 0  0.96875 0.5625 0  1 0.5625 0  0.03125 0.609375 0  0 0.609375 0  0.0625 0.609375 0  0.09375 0.609375 0  0.125 0.609375 0  0.15625 0.609375 0  0.1875 0.609375 0  0.21875 0.609375 0  0.25 0.609375 0  0.28125 0.609375 0  0.3125 0.609375 0  0.34375 0.609375 0  0.375 0.609375 0  0.40625 0.609375 0  0.4375 0.609375 0  0.46875 0.609375 0  0.5 0.609375 0  0.53125 0.609375 0  0.5625 0.609375 0  0.59375 0.609375 0  0.625 0.609375 0  0.65625 0.609375 0  0.6875 0.609375 0  0.71875 0.609375 0  0.75 0.609375 0  0.78125 0.609375 0  0.8125 0.609375 0  0.84375 0.609375 0  0.875 0.609375 0  0.90625 0.609375 0  0.9375 0.609375 0  0.96875 0.609375 0  1 0.609375 0  0.03125 0.65625 0  0 0.65625 0  0.0625 0.65625 0  0.09375 0.65625 0  0.125 0.65625 0  0.15625 0.65625 0  0.1875 0.65625 0  0.21875 0.65625 0  0.25 0.65625 0  0.28125 0.65625 0  0.3125 0.65625 0  0.34375 0.65625 0  0.375 0.65625 0  0.40625 0.65625 0  0.4375 0.65625 0  0.46875 0.65625 0  0.5 0.65625 0  0.53125 0.65625 0  0.5625 0.65625 0  0.59375 0.65625 0  0.625 0.65625 0  0.65625 0.65625 0  0.6875 0.65625 0  0.71875 0.65625 0  0.75 0.65625 0  0.78125 0.65625 0  0.8125 0.65625 0  0.84375 0.65625 0  0.875 0.65625 0  0.90625 0.65625 0  0.9375 0.65625 0  0.96875 0.65625 0  1 0.65625 0  0.03125 0.703125 0  0 0.703125 0  0.0625 0.703125 0  0.09375 0.703125 0  0.125 0.703125 0  0.15625 0.703125 0  0.1875 0.703125 0  0.21875 0.703125 0  0.25 0.703125 0  0.28125 0.703125 0  0.3125 0.703125 0  0.34375 0.703125 0  0.375 0.703125 0  0.40625 0.703125 0  0.4375 0.703125 0  0.46875 0.703125 0  0.5 0.703125 0  0.53125 0.703125 0  0.5625 0.703125 0  0.59375 0.703125 0  0.625 0.703125 0  0.65625 0.703125 0  0.6875 0.703125 0  0.71875 0.703125 0  0.75 0.703125 0  0.78125 0.703125 0  0.8125 0.703125 0  0.84375 0.703125 0  0.875 0.703125 0  0.90625 0.703125 0  0.9375 0.703125 0  0.96875 0.703125 0  1 0.703125 0  0.03125 0.75 0  0 0.75 0  0.0625 0.75 0  0.09375 0.75 0  0.125 0.75 0  0.15625 0.75 0  0.1875 0.75 0  0.21875 0.75 0  0.25 0.75 0  0.28125 0.75 0  0.3125 0.75 0  0.34375 0.75 0  0.375 0.75 0  0.40625 0.75 0  0.4375 0.75 0  0.46875 0.75 0  0.5 0.75 0  0.53125 0.75 0  0.5625 0.75 0  0.59375 0.75 0  0.625 0.75 0  0.65625 0.75 0  0.6875 0.75 0  0.71875 0.75 0  0.75 0.75 0  0.78125 0.75 0  0.8125 0.75 0  0.84375 0.75 0  0.875 0.75 0  0.90625 0.75 0  0.9375 0.75 0  0.96875 0.75 0  1 0.75 0  0.03125 0.796875 0  0 0.796875 0  0.0625 0.796875 0  0.09375 0.796875 0  0.125 0.796875 0  0.15625 0.796875 0  0.1875 0.796875 0  0.21875 0.796875 0  0.25 0.796875 0  0.28125 0.796875 0  0.3125 0.796875 0  0.34375 0.796875 0  0.375 0.796875 0  0.40625 0.796875 0  0.4375 0.796875 0  0.46875 0.796875 0  0.5 0.796875 0  0.53125 0.796875 0  0.5625 0.796875 0  0.59375 0.796875 0  0.625 0.796875 0  0.65625 0.796875 0  0.6875 0.796875 0  0.71875 0.796875 0  0.75 0.796875 0  0.78125 0.796875 0  0.8125 0.796875 0  0.84375 0.796875 0  0.875 0.796875 0  0.90625 0.796875 0  0.9375 0.796875 0  0.96875 0.796875 0  1 0.796875 0  0.03125 0.84375 0  0 0.84375 0  0.0625 0.84375 0  0.09375 0.84375 0  0.125 0.84375 0  0.15625 0.84375 0  0.1875 0.84375 0  0.21875 0.84375 0  0.25 0.84375 0  0.28125 0.84375 0  0.3125 0.84375 0  0.34375 0.84375 0  0.375 0.84375 0  0.40625 0.84375 0  0.4375 0.84375 0  0.46875 0.84375 0  0.5 0.84375 0  0.53125 0.84375 0  0.5625 0.84375 0  0.59375 0.84375 0  0.625 0.84375 0  0.65625 0.84375 0  0.6875 0.84375 0  0.71875 0.84375 0  0.75 0.84375 0  0.78125 0.84375 0  0.8125 0.84375 0  0.84375 0.84375 0  0.875 0.84375 0  0.90625 0.84375 0  0.9375 0.84375 0  0.96875 0.84375 0  1 0.84375 0  0.03125 0.890625 0  0 0.890625 0  0.0625 0.890625 0  0.09375 0.890625 0  0.125 0.890625 0  0.15625 0.890625 0  0.1875 0.890625 0  0.21875 0.890625 0  0.25 0.890625 0  0.28125 0.890625 0  0.3125 0.890625 0  0.34375 0.890625 0  0.375 0.890625 0  0.40625 0.890625 0  0.4375 0.890625 0  0.46875 0.890625 0  0.5 0.890625 0  0.53125 0.890625 0  0.5625 0.890625 0  0.59375 0.890625 0  0.625 0.890625 0  0.65625 0.890625 0  0.6875 0.890625 0  0.71875 0.890625 0  0.75 0.890625 0  0.78125 0.890625 0  0.8125 0.890625 0  0.84375 0.890625 0  0.875 0.890625 0  0.90625 0.890625 0  0.9375 0.890625 0  0.96875 0.890625 0  1 0.890625 0  0.03125 0.9375 0  0 0.9375 0  0.0625 0.9375 0  0.09375 0.9375 0  0.125 0.9375 0  0.15625 0.9375 0  0.1875 0.9375 0  0.21875 0.9375 0  0.25 0.9375 0  0.28125 0.9375 0  0.3125 0.9375 0  0.34375 0.9375 0  0.375 0.9375 0  0.40625 0.9375 0  0.4375 0.9375 0  0.46875 0.9375 0  0.5 0.9375 0  0.53125 0.9375 0  0.5625 0.9375 0  0.59375 0.9375 0  0.625 0.9375 0  0.65625 0.9375 0  0.6875 0.9375 0  0.71875 0.9375 0  0.75 0.9375 0  0.78125 0.9375 0  0.8125 0.9375 0  0.84375 0.9375 0  0.875 0.9375 0  0.90625 0.9375 0  0.9375 0.9375 0  0.96875 0.9375 0  1 0.9375 0  0.03125 0.984375 0  0 0.984375 0  0.0625 0.984375 0  0.09375 0.984375 0  0.125 0.984375 0  0.15625 0.984375 0  0.1875 0.984375 0  0.21875 0.984375 0  0.25 0.984375 0  0.28125 0.984375 0  0.3125 0.984375 0  0.34375 0.984375 0  0.375 0.984375 0  0.40625 0.984375 0  0.4375 0.984375 0  0.46875 0.984375 0  0.5 0.984375 0  0.53125 0.984375 0  0.5625 0.984375 0  0.59375 0.984375 0  0.625 0.984375 0  0.65625 0.984375 0  0.6875 0.984375 0  0.71875 0.984375 0  0.75 0.984375 0  0.78125 0.984375 0  0.8125 0.984375 0  0.84375 0.984375 0  0.875 0.984375 0  0.90625 0.984375 0  0.9375 0.984375 0  0.96875 0.984375 0  1 0.984375 0  0.03125 1.03125 0  0 1.03125 0  0.0625 1.03125 0  0.09375 1.03125 0  0.125 1.03125 0  0.15625 1.03125 0  0.1875 1.03125 0  0.21875 1.03125 0  0.25 1.03125 0  0.28125 1.03125 0  0.3125 1.03125 0  0.34375 1.03125 0  0.375 1.03125 0  0.40625 1.03125 0  0.4375 1.03125 0  0.46875 1.03125 0  0.5 1.03125 0  0.53125 1.03125 0  0.5625 1.03125 0  0.59375 1.03125 0  0.625 1.03125 0  0.65625 1.03125 0  0.6875 1.03125 0  0.71875 1.03125 0  0.75 1.03125 0  0.78125 1.03125 0  0.8125 1.03125 0  0.84375 1.03125 0  0.875 1.03125 0  0.90625 1.03125 0  0.9375 1.03125 0  0.96875 1.03125 0  1 1.03125 0  0.03125 1.078125 0  0 1.078125 0  0.0625 1.078125 0  0.09375 1.078125 0  0.125 1.078125 0  0.15625 1.078125 0  0.1875 1.078125 0  0.21875 1.078125 0  0.25 1.078125 0  0.28125 1.078125 0  0.3125 1.078125 0  0.34375 1.078125 0  0.375 1.078125 0  0.40625 1.078125 0  0.4375 1.078125 0  0.46875 1.078125 0  0.5 1.078125 0  0.53125 1.078125 0  0.5625 1.078125 0  0.59375 1.078125 0  0.625 1.078125 0  0.65625 1.078125 0  0.6875 1.078125 0  0.71875 1.078125 0  0.75 1.078125 0  0.78125 1.078125 0  0.8125 1.078125 0  0.84375 1.078125 0  0.875 1.078125 0  0.90625 1.078125 0  0.9375 1.078125 0  0.96875 1.078125 0  1 1.078125 0  0.03125 1.125 0  0 1.125 0  0.0625 1.125 0  0.09375 1.125 0  0.125 1.125 0  0.15625 1.125 0  0.1875 1.125 0  0.21875 1.125 0  0.25 1.125 0  0.28125 1.125 0  0.3125 1.125 0  0.34375 1.125 0  0.375 1.125 0  0.40625 1.125 0  0.4375 1.125 0  0.46875 1.125 0  0.5 1.125 0  0.53125 1.125 0  0.5625 1.125 0  0.59375 1.125 0  0.625 1.125 0  0.65625 1.125 0  0.6875 1.125 0  0.71875 1.125 0  0.75 1.125 0  0.78125 1.125 0  0.8125 1.125 0  0.84375 1.125 0  0.875 1.125 0  0.90625 1.125 0  0.9375 1.125 0  0.96875 1.125 0  1 1.125 0  0.03125 1.171875 0  0 1.171875 0  0.0625 1.171875 0  0.09375 1.171875 0  0.125 1.171875 0  0.15625 1.171875 0  0.1875 1.171875 0  0.21875 1.171875 0  0.25 1.171875 0  0.28125 1.171875 0  0.3125 1.171875 0  0.34375 1.171875 0  0.375 1.171875 0  0.40625 1.171875 0  0.4375 1.171875 0  0.46875 1.171875 0  0.5 1.171875 0  0.53125 1.171875 0  0.5625 1.171875 0  0.59375 1.171875 0  0.625 1.171875 0  0.65625 1.171875 0  0.6875 1.171875 0  0.71875 1.171875 0  0.75 1.171875 0  0.78125 1.171875 0  0.8125 1.171875 0  0.84375 1.171875 0  0.875 1.171875 0  0.90625 1.171875 0  0.9375 1.171875 0  0.96875 1.171875 0  1 1.171875 0  0.03125 1.21875 0  0 1.21875 0  0.0625 1.21875 0  0.09375 1.21875 0  0.125 1.21875 0  0.15625 1.21875 0  0.1875 1.21875 0  0.21875 1.21875 0  0.25 1.21875 0  0.28125 1.21875 0  0.3125 1.21875 0  0.34375 1.21875 0  0.375 1.21875 0  0.40625 1.21875 0  0.4375 1.21875 0  0.46875 1.21875 0  0.5 1.21875 0  0.53125 1.21875 0  0.5
[...]
<PointData  Vectors="u"> 
<DataArray  type="Float64"  Name="u"  NumberOfComponents="3" format="ascii">1.4116397093405078e-02 7.1454983096582250e-04 0.0000000000000000e+00  1.6277525284309993e-02 3.9889647785046316e-03 0.0000000000000000e+00  1.7909082365297813e-02 4.2710669905658485e-03 0.0000000000000000e+00  1.5337481455920489e-02 9.3242990301584106e-04 0.0000000000000000e+00  1.5726371064664794e-02 7.2641393804299733e-03 0.0000000000000000e+00  1.7523645401610576e-02 7.8596451564704219e-03 0.0000000000000000e+00  1.4635343447711486e-02 1.0193269056944279e-02 0.0000000000000000e+00  1.6218807706188703e-02 1.1031196392402933e-02 0.0000000000000000e+00  1.3206150892913932e-02 1.2656922067373498e-02 0.0000000000000000e+00  1.4558706218284844e-02 1.3674257011838872e-02 0.0000000000000000e+00  1.1546788898943661e-02 1.4589399927356002e-02 0.0000000000000000e+00  1.2696615564198306e-02 1.5727273136401290e-02 0.0000000000000000e+00  9.7469473841570974e-03 1.5946429519955837e-02 0.0000000000000000e+00  1.0721639139913258e-02 1.7151896104271893e-02 0.0000000000000000e+00  7.8849174569761565e-03 1.6703971398265609e-02 0.0000000000000000e+00  8.7087754412389744e-03 1.7930165448861494e-02 0.0000000000000000e+00  6.0296647574327872e-03 1.6857933295248238e-02 0.0000000000000000e+00  6.7239992593359447e-03 1.8063572742687672e-02 0.0000000000000000e+00  4.2417989737621618e-03 1.6422953416568527e-02 0.0000000000000000e+00  4.8251828712999375e-03 1.7571932536158005e-02 0.0000000000000000e+00  2.5741732932191563e-03 1.5430775100175294e-02 0.0000000000000000e+00  3.0629097947608296e-03 1.6491747213737883e-02 0.0000000000000000e+00  1.0723903476430549e-03 1.3928296599693161e-02 0.0000000000000000e+00  1.4806792494666545e-03 1.4874400175888969e-02 0.0000000000000000e+00  -2.2483106531899559e-04 1.1975593172725743e-02 0.0000000000000000e+00  1.1546439513871350e-04 1.2784152333466038e-02 0.0000000000000000e+00  -1.2852698696648854e-03 9.6438384096110344e-03 0.0000000000000000e+00  -1.0021287560929189e-03 1.0296193969371703e-02 0.0000000000000000e+00  -2.0829804295702408e-03 7.0133139527767110e-03 0.0000000000000000e+00  -1.8475267086031739e-03 7.4946365398527301e-03 0.0000000000000000e+00  -2.5980878206249493e-03 4.1713852257735714e-03 0.0000000000000000e+00  -2.4021508055231699e-03 4.4706153997236663e-03 0.0000000000000000e+00  -2.8166663556880461e-03 1.2105616586629659e-03 0.0000000000000000e+00  -2.6532033827907412e-03 1.3203525462309441e-03 0.0000000000000000e+00  -2.7306761002307972e-03 -1.7734773330021435e-03 0.0000000000000000e+00  -2.5937711905267996e-03 -1.8566968006680708e-03 0.0000000000000000e+00  -2.3380226117942246e-03 -4.6838296358313212e-03 0.0000000000000000e+00  -2.2228567914124456e-03 -4.9597693363567499e-03 0.0000000000000000e+00  -1.6426486198746152e-03 -7.4243987077403303e-03 0.0000000000000000e+00  -1.5456162344956990e-03 -7.8887150250768669e-03 0.0000000000000000e+00  -6.5470661599285938e-04 -9.9019641043699702e-03 0.0000000000000000e+00  -5.7354568737172753e-04 -1.0546043582685748e-02 0.0000000000000000e+00  6.0920953393177899e-04 -1.2028387254458896e-02 0.0000000000000000e+00  6.7508770089549507e-04 -1.2839042231510743e-02 0.0000000000000000e+00  2.1257636951527922e-03 -1.3722903679224477e-02 0.0000000000000000e+00  2.1748981203251277e-03 -1.4682063086999233e-02 0.0000000000000000e+00  3.8646274740019634e-03 -1.4914576433281477e-02 0.0000000000000000e+00  3.8928894223681219e-03 -1.5998912872930645e-02 0.0000000000000000e+00  5.7881871713477018e-03 -1.5544824789907246e-02 0.0000000000000000e+00  5.7880867651516925e-03 -1.6725402480437902e-02 0.0000000000000000e+00  7.8513180632839557e-03 -1.5570061786494427e-02 0.0000000000000000e+00  7.8110265050847297e-03 -1.6811942307870455e-02 0.0000000000000000e+00  1.0001000372624483e-02 -1.4964327136028844e-02 0.0000000000000000e+00  9.9033676033210335e-03 -1.6226185411426942e-02 0.0000000000000000e+00  1.2175087142345950e-02 -1.3721929102270755e-02 0.0000000000000000e+00  1.1996724081823652e-02 -1.4955569750991136e-02 0.0000000000000000e+00  1.4296691984381257e-02 -1.1860152765220696e-02 0.0000000000000000e+00  1.4008669251011763e-02 -1.3009816300179161e-02 0.0000000000000000e+00  1.6247931334711679e-02 -9.4230719417342720e-03 0.0000000000000000e+00  1.5823722381307331e-02 -1.0423958671142078e-02 0.0000000000000000e+00  1.7750700343169439e-02 -6.4931471874368676e-03 0.0000000000000000e+00  1.7206979897203815e-02 -7.2669363410433627e-03 0.0000000000000000e+00  1.7925768886944225e-02 -3.2630482470331419e-03 0.0000000000000000e+00  1.7458201910451124e-02 -3.6944448366210115e-03 0.0000000000000000e+00  1.5188533850749628e-02 -3.0009481433008285e-04 0.0000000000000000e+00  1.4589105589897042e-02 -4.1159388340374862e-04 0.0000000000000000e+00  1.9809728909943612e-02 5.0657813864409722e-03 0.0000000000000000e+00  1.7169970708146697e-02 1.3983616306737364e-03 0.0000000000000000e+00  1.9303806185717316e-02 9.3110581732800297e-03 0.0000000000000000e+00  1.7925630774366701e-02 1.3009866869206611e-02 0.0000000000000000e+00  1.6157477185458815e-02 1.6035306546301753e-02 0.0000000000000000e+00  1.4168775942858527e-02 1.8338867954567042e-02 0.0000000000000000e+00  1.2061902411135934e-02 1.9896153382936956e-02 0.0000000000000000e+00  9.9181440524575663e-03 2.0702478300905953e-02 0.0000000000000000e+00  7.8076423872509024e-03 2.0771947428515083e-02 0.0000000000000000e+00  5.7919082431318099e-03 2.0136152943159517e-02 0.0000000000000000e+00  3.9239906369912978e-03 1.8842661724424937e-02 0.0000000000000000e+00  2.2494686850405119e-03 1.6953155637652810e-02 0.0000000000000000e+00  8.0651018289836537e-04 1.4541623826804805e-02 0.0000000000000000e+00  -3.7323556808993412e-04 1.1692387115196870e-02 0.0000000000000000e+00  -1.2647069952860823e-03 8.4983313218090183e-03 0.0000000000000000e+00  -1.8487751334410603e-03 5.0590260677068170e-03 0.0000000000000000e+00  -2.1123566264243396e-03 1.4790632561774222e-03 0.0000000000000000e+00  -2.0481186726010649e-03 -2.1337328577745161e-03 0.0000000000000000e+00  -1.6548116639622556e-03 -5.6699507288053355e-03 0.0000000000000000e+00  -9.3725037891058925e-04 -9.0204218119037567e-03 0.0000000000000000e+00  9.3134725887240025e-05 -1.2078019448306119e-02 0.0000000000000000e+00  1.4180109115010664e-03 -1.4739694317963903e-02 0.0000000000000000e+00  3.0113567073542951e-03 -1.6908574960468825e-02 0.0000000000000000e+00  4.8390769826603284e-03 -1.8496320252605659e-02 0.0000000000000000e+00  6.8581290711384477e-03 -1.9425550025653309e-02 0.0000000000000000e+00  9.0161131493434361e-03 -1.9632449145672637e-02 0.0000000000000000e+00  1.1250398129854405e-02 -1.9069324978247277e-02 0.0000000000000000e+00  1.3487045830118477e-02 -1.7707123481646273e-02 0.0000000000000000e+00  1.5636048936652765e-02 -1.5537766515059439e-02 0.0000000000000000e+00  1.7570312506738590e-02 -1.2577104092758092e-02 0.0000000000000000e+00  1.9026421521544819e-02 -8.8747135882098708e-03 0.0000000000000000e+00  1.9186520107526694e-02 -4.5902239401290302e-03 0.0000000000000000e+00  1.5679944149578906e-02 -8.5877090075113754e-04 0.0000000000000000e+00  2.2684969227465830e-02 6.0277515508756156e-03 0.0000000000000000e+00  1.9756320488194215e-02 1.8639885061314918e-03 0.0000000000000000e+00  2.2100871146354558e-02 1.1038009738484686e-02 0.0000000000000000e+00  2.0603344333489142e-02 1.5354283299616992e-02 0.0000000000000000e+00  1.8691517382110726e-02 1.8828298854895984e-02 0.0000000000000000e+00  1.6542402058233180e-02 2.1423996861583267e-02 0.0000000000000000e+00  1.4265965487717336e-02 2.3133124571237146e-02 0.0000000000000000e+00  1.1951407343901342e-02 2.3967242077196964e-02 0.0000000000000000e+00  9.6759857702830143e-03 2.3955950647800095e-02 0.0000000000000000e+00  7.5060373382071915e-03 2.3145475711016304e-02 0.0000000000000000e+00  5.4989075274522259e-03 2.1596962345797329e-02 0.0000000000000000e+00  3.7025737967931330e-03 1.9384732554237189e-02 0.0000000000000000e+00  2.1574386129617888e-03 1.6594366172394976e-02 0.0000000000000000e+00  8.9600353557525313e-04 1.3321005300787107e-02 0.0000000000000000e+00  -5.5598118013925989e-05 9.6675387749070949e-03 0.0000000000000000e+00  -6.7798007074226579e-04 5.7431330813300964e-03 0.0000000000000000e+00  -9.5733913881017459e-04 1.6615888245758372e-03 0.0000000000000000e+00  -8.8605068007846185e-04 -2.4599646068389613e-03 0.0000000000000000e+00  -4.6208152947142724e-04 -6.5026382077196304e-03 0.0000000000000000e+00  3.1018853670516770e-04 -1.0347135480826839e-02 0.0000000000000000e+00  1.4200370359729831e-03 -1.3875451018104364e-02 0.0000000000000000e+00  2.8492217177151251e-03 -1.6972513317024256e-02 0.0000000000000000e+00  4.5716568888087422e-03 -1.9528206702957324e-02 0.0000000000000000e+00  6.5520552304636492e-03 -2.1439467733949183e-02 0.0000000000000000e+00  8.7454507116858683e-03 -2.2612710199076212e-02 0.0000000000000000e+00  1.1095819123783513e-02 -2.2966326145953491e-02 0.0000000000000000e+00  1.3535625104969366e-02 -2.2433336186536319e-02 0.0000000000000000e+00  1.5983792659678201e-02 -2.0963956140419661e-02 0.0000000000000000e+00  1.8340678556832558e-02 -1.8528200352995374e-02 0.0000000000000000e+00  2.0462317426863070e-02 -1.5119507336145407e-02 0.0000000000000000e+00  2.2040241720930245e-02 -1.0768364635420222e-02 0.0000000000000000e+00  2.2091860917776811e-02 -5.6516066005081848e-03 0.0000000000000000e+00  1.7840174982358611e-02 -1.3598307474219273e-03 0.0000000000000000e+00  2.6554586821540421e-02 7.0923341748580669e-03 0.0000000000000000e+00  2.3140863349891246e-02 2.3477955050305015e-03 0.0000000000000000e+00  2.5920346856004566e-02 1.2944824691882328e-02 0.0000000000000000e+00  2.4291475036210371e-02 1.7935762098886299e-02 0.0000000000000000e+00  2.2217048433311133e-02 2.1896426805846102e-02 0.0000000000000000e+00  1.9887229339633758e-02 2.4805113842955050e-02 0.0000000000000000e+00  1.7422273643345768e-02 2.6671868586501134e-02 0.0000000000000000e+00  1.4920732684069149e-02 2.7526943729181942e-02 0.0000000000000000e+00  1.2466372381824260e-02 2.7418030718688417e-02 0.0000000000000000e+00  1.0131668093563933e-02 2.6408420440995246e-02 0.0000000000000000e+00  7.9771155981737188e-03 2.4575059838768547e-02 0.0000000000000000e+00  6.0538895017379843e-03 2.2006660314905793e-02 0.0000000000000000e+00  4.4030514580425291e-03 1.8801854591710666e-02 0.0000000000000000e+00  3.0584447020792051e-03 1.5067466324494351e-02 0.0000000000000000e+00  2.0457121107361992e-03 1.0917063216823659e-02 0.0000000000000000e+00  1.3849159862261912e-03 6.4695179746437799e-03 0.0000000000000000e+00  1.0893985694574355e-03 1.8479741312433669e-03 0.0000000000000000e+00  1.1677065521588064e-03 -2.8213870002820130e-03 0.0000000000000000e+00  1.6220849424734628e-03 -7.4101807560969140e-03 0.0000000000000000e+00  2.4495826184403723e-03 -1.1789065471529711e-02 0.0000000000000000e+00  3.6402094417010097e-03 -1.5828744203024638e-02 0.0000000000000000e+00  5.1771487174536602e-03 -1.9401495119988996e-02 0.0000000000000000e+00  7.0345957339706553e-03 -2.2382685076541776e-02 0.0000000000000000e+00  9.1774721190436316e-03 -2.4652802738966771e-02 0.0000000000000000e+00  1.1559199840119848e-02 -2.6099657819908830e-02 0.0000000000000000e+00  1.4121196661050085e-02 -2.6620966766377024e-02 0.0000000000000000e+00  1.6790918285847906e-02 -2.6127109844989296e-02 0.0000000000000000e+00  1.9480483905737835e-02 -2.4544057643259374e-02 0.0000000000000000e+00  2.2079573582034440e-02 -2.1816570390087785e-02 0.0000000000000000e+00  2.4425059575169883e-02 -1.7913138324531803e-02 0.0000000000000000e+00  2.6153566363547757e-02 -1.2844414954568940e-02 0.0000000000000000e+00  2.6080060596214361e-02 -6.8072813697801432e-03 0.0000000000000000e+00  2.0885751472583619e-02 -1.8581594391840202e-03 0.0000000000000000e+00  3.1464875033055353e-02 8.2554337689012530e-03 0.0000000000000000e+00  2.7365747899042017e-02 2.8712983379880789e-03 0.0000000000000000e+00  3.0808252904498457e-02 1.5022009405955373e-02 0.0000000000000000e+00  2.9044145865328216e-02 2.0739673416148217e-02 0.0000000000000000e+00  2.6801200544652001e-02 2.5219472244938396e-02 0.0000000000000000e+00  2.4288933242703533e-02 2.8455934514724234e-02 0.0000000000000000e+00  2.1639591142192324e-02 3.0480267103495107e-02 0.0000000000000000e+00  1.8959775660617125e-02 3.1344426222203244e-02 0.0000000000000000e+00  1.6340547356531308e-02 3.1117312059655802e-02 0.0000000000000000e+00  1.3857934576002042e-02 2.9882086252672593e-02 0.0000000000000000e+00  1.1575973474960265e-02 2.7733989376796199e-02 0.0000000000000000e+00  9.5457946267471418e-03 2.4778051841956354e-02 0.0000000000000000e+00  7.8094968672797836e-03 2.1127325722584255e-02 0.0000000000000000e+00  6.3989292243134084e-03 1.6901159348119203e-02 0.0000000000000000e+00  5.3398712624589204e-03 1.2224000968914578e-02 0.0000000000000000e+00  4.6501768088487196e-03 7.2243717923297550e-03 0.0000000000000000e+00  4.3437875125883875e-03 2.0341234014274864e-03 0.0000000000000000e+00  4.4281786296422902e-03 -3.2120331585246322e-03 0.0000000000000000e+00  4.9074063029529748e-03 -8.3771001263357719e-03 0.0000000000000000e+00  5.7791067445071712e-03 -1.3322093978220140e-02 0.0000000000000000e+00  7.0362179174275142e-03 -1.7906821566797324e-02 0.0000000000000000e+00  8.6636195342535884e-03 -2.1990548807344589e-02 0.0000000000000000e+00  1.0638453511715745e-02 -2.5433343515940253e-02 0.0000000000000000e+00  1.2926836627394918e-02 -2.8097590344002013e-02 0.0000000000000000e+00  1.5483306396188728e-02 -2.9850158791780931e-02 0.0000000000000000e+00  1.8247885555024088e-02 -3.0564964956174168e-02 0.0000000000000000e+00  2.1145236485714321e-02 -3.0126018843387344e-02 0.0000000000000000e+00  2.4081302964409405e-02 -2.8430912415992680e-02 0.0000000000000000e+00  2.6935812810235566e-02 -2.5394916866284992e-02 0.0000000000000000e+00  2.9524174124677751e-02 -2.0957695164129122e-02 0.0000000000000000e+00  3.1417998976162820e-02 -1.5107149382807314e-02 0.0000000000000000e+00  3.1184371875583473e-02 -8.0607870332831833e-03 0.0000000000000000e+00  2.4806841749014593e-02 -2.3729804995895830e-03 0.0000000000000000e+00  3.7508937263086573e-02 9.5174088558068783e-03 0.0000000000000000e+00  3.2504652982922051e-02 3.4513283838485901e-03 0.0000000000000000e+00  3.6862695632903862e-02 1.7265856557778670e-02 0.0000000000000000e+00  3.4968898762757807e-02 2.3756764396381139e-02 0.0000000000000000e+00  3.2565324739723199e-02 2.8780358379176946e-02 0.0000000000000000e+00  2.9887760363474472e-02 3.2350626457376699e-02 0.0000000000000000e+00  2.7080227546755237e-02 3.4523706238891685e-02 0.0000000000000000e+00  2.4257586068564679e-02 3.5377362788119607e-02 0.0000000000000000e+00  2.1515108482820823e-02 3.5005489229759178e-02 0.0000000000000000e+00  1.8931713947203842e-02 3.3514683285119175e-02 0.0000000000000000e+00  1.6570506297160822e-02 3.1021213264489655e-02 0.0000000000000000e+00  1.4482001376806731e-02 2.7648649085036881e-02 0.0000000000000000e+00  1.2704204047765325e-02 2.3525671336547319e-02 0.0000000000000000e+00  1.1267203268588342e-02 1.8784782486917877e-02 0.0000000000000000e+00  1.0191907502650912e-02 1.3561091263143902e-02 0.0000000000000000e+00  9.4953740773813800e-03 7.9920439073392028e-03 0.0000000000000000e+00  9.1879974929126376e-03 2.2170537150300179e-03 0.0000000000000000e+00  9.2786886410222581e-03 -3.6221422565167966e-03 0.0000000000000000e+00  9.7706122645594851e-03 -9.3813114050072029e-03 0.0000000000000000e+00  1.0665298772104434e-02 -1.4913325677113414e-02 0.0000000000000000e+00  1.1957757274082154e-02 -2.0067941606983223e-02 0.0000000000000000e+00  1.3638440819082834e-02 -2.4691971610307183e-02 0.0000000000000000e+00  1.5688388548492950e-02 -2.8629710555953158e-02 0.0000000000000000e+00  1.8079123333902304e-02 -3.1724205434079861e-02 0.0000000000000000e+00  2.0768428095098403e-02 -3.3818992876136302e-02 0.0000000000000000e+00  2.3698918728583353e-02 -3.4760786388943296e-02 0.0000000000000000e+00  2.6794766008703615e-02 -3.4402825138533481e-02 0.0000000000000000e+00  2.9958616300821833e-02 -3.2609100248374892e-02 0.0000000000000000e+00  3.3061126586665351e-02 -2.9259672660285528e-02 0.0000000000000000e+00  3.5894967302601957e-02 -2.4259480349461793e-02 0.0000000000000000e+00  3.7955017239745405e-02 -1.7568407729518287e-02 0.0000000000000000e+00  3.7508091320451770e-02 -9.4239108169071311e-03 0.0000000000000000e+00  2.9662313863035198e-02 -2.9289593230036057e-03 0.0000000000000000e+00  4.4816799807234756e-02 1.0874052842124242e-02 0.0000000000000000e+00  3.8658067668382805e-02 4.1014719076999211e-03 0.0000000000000000e+00  4.4222798489289492e-02 1.9663749263600084e-02 0.0000000000000000e+00  4.2215273841261287e-02 2.6962613599760439e-02 0.0000000000000000e+00  3.9674544042261034e-02 3.2540289109242532e-02 0.0000000000000000e+00  3.6868753604182201e-02 3.6435103606314634e-02 0.0000000000000000e+00  3.3954430566139705e-02 3.8733646064670842e-02 0.0000000000000000e+00  3.1052592284573188e-02 3.9544969351821668e-02 0.0000000000000000e+00  2.8260563751824612e-02 3.8993021084638903e-02 0.0000000000000000e+00  2.5655653421830744e-02 3.7212070182314837e-02 0.0000000000000000e+00  2.3297287270105459e-02 3.4342797087303721e-02 0.0000000000000000e+00  2.1229477361574049e-02 3.0529423253163480e-02 0.0000000000000000e+00  1.9484274030819530e-02 2.5917510513374192e-02 0.0000000000000000e+00  1.8083548337192057e-02 2.0652594372031298e-02 0.0000000000000000e+00  1.7043463886272862e-02 1.4879770997932860e-02 0.0000000000000000e+00  1.6374087425792987e-02 8.7435597800467005e-03 0.0000000000000000e+00  1.6084751629328514e-02 2.3889389061702250e-03 0.0000000000000000e+00  1.6180834336104264e-02 -4.0380206964660062e-03 0.0000000000000000e+00  1.6668955837612343e-02 -1.0388365898871724e-02 0.0000000000000000e+00  1.7551664209797861e-02 -1.6509327162401506e-02 0.0000000000000000e+00  1.8831294307006179e-02 -2.2242729274209713e-02 0.0000000000000000e+00  2.0503727484803093e-02 -2.7424244571176412e-02 0.0000000000000000e+00  2.2559513254632357e-02 -3.1882993708947885e-02 0.0000000000000000e+00  2.4978107230268425e-02 -3.5441836179693889e-02 0.0000000000000000e+00  2.7726256024780998e-02 -3.7918936508626357e-02 0.0000000000000000e+00  3.0753231241115554e-02 -3.9130075974720409e-02 0.0000000000000000e+00  3.3987800954205054e-02 -3.8892578585828910e-02 0.0000000000000000e+00  3.7332997374941654e-02 -3.7030225088813436e-02 0.0000000000000000e+00  4.0653137240988707e-02 -3.3380174553328319e-02 0.0000000000000000e+00  4.3717176810521577e-02 -2.7804258767112497e-02 0.0000000000000000e+00  4.5930583400195103e-02 -2.0226275575413035e-02 0.0000000000000000e+00  4.5199236783152894e-02 -1.0901277483433903e-02 0.0000000000000000e+00  3.5550609126051416e-02 -3.5459002765456868e-03 0.0000000000000000e+00  5.3548977671675199e-02 1.2314769543603230e-02 0.0000000000000000e+00  4.5948034064277929e-02 4.8335030556324633e-03 0.0000000000000000e+00  5.3060158197607635e-02 2.2189723960563148e-02 0.0000000000000000e+00  5.0967001819903851e-02 3.0311565421693755e-02 0.0000000000000000e+00  4.8330227032879557e-02 3.6430996274573642e-02 0.0000000000000000e+00  4.5457071806352285e-02 4.0617889343049829e-02 0.0000000000000000e+00  4.2516525735850942e-02 4.2997284009079234e-02 0.0000000000000000e+00  3.9633060377829529e-02 4.3716939825880451e-02 0.0000000000000000e+00  3.6901797694656006e-02 4.2937594179634456e-02 0.0000000000000000e+00  3.4393428682507741e-02 4.0826397943271364e-02 0.0000000000000000e+00  3.2157616073153920e-02 3.7552362998327447e-02 0.0000000000000000e+00  3.0226805315019555e-02 3.3282534014675375e-02 0.0000000000000000e+00  2.8620409402728364e-02 2.8180058393617778e-02 0.0000000000000000e+00  2.7348821849740537e-02 2.2402881147353341e-02 0.0000000000000000e+00  2.6416828136104051e-02 1.6104020008788012e-02 0.0000000000000000e+00  2.5827172336355377e-02 9.4324802567851956e-03 0.0000000000000000e+00  2.5582071585158957e-02 2.5348751930021935e-03 0.0000000000000000e+00  2.5686303286406097e-02 -4.4420094660989999e-03 0.0000000000000000e+00  