<?xml version="1.0"?>
<VTKFile type="UnstructuredGrid"  version="0.1"  >
<UnstructuredGrid>
<Piece  NumberOfPoints="825" NumberOfCells="1536">
<Points>
<DataArray  type="Float64"  NumberOfComponents="3"  format="ascii">-1.048402448507783e-21 0.5 0  0.06249999969157106 0.5000000132800402 0  0.06249998569407501 0.5625000149636364 0  -1.547365416928658e-08 0.5625000035645927 0  0.12499999799986 0.500000023637779 0  0.1249999851575588 0.5625000239050436 0  0.1874999950500582 0.5000000337632575 0  0.1874999832045823 0.5625000310697966 0  0.2499999904342294 0.5000000408396736 0  0.2499999800998519 0.562500035244106 0  0.3124999816968391 0.5000000375587018 0  0.3124999753123566 0.5625000348782772 0  0.3749999716905507 0.5000000329056338 0  0.3749999687651843 0.5625000315131151 0  0.4374999610173185 0.5000000270279799 0  0.4374999614065916 0.5625000265771136 0  0.4999999498820838 0.50000001933472 0  0.4999999538488002 0.5625000201605768 0  0.5624999387788177 0.5000000096390501 0  0.5624999465134225 0.5625000129654234 0  0.6249999310699863 0.5000000029790778 0  0.6249999402506018 0.5625000066867362 0  0.6874999261051368 0.4999999982120698 0  0.6874999355200168 0.5625000012553432 0  0.7499999216678878 0.4999999919219346 0  0.7499999319551193 0.5624999962884824 0  0.8124999197870698 0.4999999886164241 0  0.8124999297381476 0.5624999929606266 0  0.8749999204929436 0.4999999883460328 0  0.874999928918503 0.5624999914247523 0  0.9374999228499979 0.4999999907576346 0  0.9374999293114941 0.5624999912513063 0  0.9999999254263205 0.4999999923934582 0  0.999999930800504 0.5624999910985432 0  1.062499926534939 0.4999999892439812 0  1.062499932522172 0.5624999893178176 0  1.124999927977127 0.499999986521869 0  1.124999934177197 0.5624999868006746 0  1.187499930832264 0.499999984985736 0  1.187499936365175 0.5624999842275022 0  1.249999932660284 0.4999999795167917 0  1.249999938798652 0.5624999806825135 0  1.312499935347545 0.4999999756305058 0  1.312499941305863 0.562499977229084 0  1.374999939806321 0.4999999739370686 0  1.37499994450531 0.5624999746540746 0  1.437499943685058 0.4999999695945834 0  1.437499948096722 0.5624999722655173 0  1.499999949218599 0.4999999689079433 0  1.499999951895363 0.5624999713871872 0  1.562499956408762 0.4999999718709157 0  1.562499956418164 0.5624999725566333 0  1.624999962712523 0.4999999731166295 0  1.624999961283922 0.5624999746570754 0  1.687499970600517 0.4999999782813222 0  1.687499966209971 0.5624999783471915 0  1.749999979229414 0.4999999854626336 0  1.749999971408811 0.5624999833968658 0  1.812499985883776 0.4999999894823651 0  1.812499976257169 0.5624999885577242 0  1.874999993071604 0.4999999964599459 0  1.874999980372188 0.5624999944040626 0  1.937499998509238 0.5000000013312127 0  1.937499983793356 0.5625000007750817 0  2 0.5 0  1.999999987269427 0.5625000102981156 0  0.06249997588994981 0.625000016570612 0  -2.498662558891944e-08 0.625000008373766 0  0.1249999759514634 0.6250000235900995 0  0.1874999750656736 0.6250000289491016 0  0.2499999732716155 0.6250000319676062 0  0.3124999703718638 0.6250000321285036 0  0.3749999662997657 0.6250000298288083 0  0.4374999614443617 0.6250000258204996 0  0.4999999562442563 0.625000020577234 0  0.5624999510397255 0.6250000147255199 0  0.6249999462709426 0.6250000090428992 0  0.6874999423105901 0.6250000038795966 0  0.7499999392021337 0.6249999994001081 0  0.8124999369886114 0.624999995965771 0  0.874999935773968 0.6249999937226692 0  0.9374999355902062 0.6249999923560895 0  0.9999999363356004 0.6249999911126137 0  1.062499937630305 0.6249999893096885 0  1.124999939190139 0.6249999869776448 0  1.187499941051738 0.6249999843171624 0  1.249999943136198 0.6249999813398915 0  1.312499945350383 0.6249999784103911 0  1.374999947810978 0.6249999759272664 0  1.437499950458993 0.6249999740681804 0  1.499999953223247 0.6249999732899583 0  1.562499956231436 0.6249999738697294 0  1.624999959400431 0.6249999756650652 0  1.687499962590185 0.6249999786926433 0  1.749999965775578 0.6249999828133346 0  1.812499968705662 0.6249999876698502 0  1.874999971133397 0.6249999932663296 0  1.93749997302581 0.6249999998594511 0  1.999999974511361 0.6250000077654776 0  0.06249996951978519 0.6875000179886241 0  -3.098753433115616e-08 0.6875000124352676 0  0.1249999697493462 0.6875000231572921 0  0.1874999694540198 0.6875000271338079 0  0.2499999685194562 0.6875000293741261 0  0.3124999668264939 0.6875000295903421 0  0.374999964338135 0.6875000279041499 0  0.4374999612071513 0.6875000247011578 0  0.4999999576786592 0.6875000204152335 0  0.5624999540081046 0.6875000155368839 0  0.6249999504790156 0.6875000105681965 0  0.6874999473437944 0.6875000058741412 0  0.7499999447438418 0.6875000017043532 0  0.8124999427780268 0.6874999982612259 0  0.8749999415477704 0.6874999956020268 0  0.9374999411110406 0.6874999935306177 0  0.9999999414159976 0.6874999916488853 0  1.062499942275325 0.6874999895999258 0  1.12499994349586 0.6874999872741415 0  1.187499944975678 0.6874999847218827 0  1.249999946627434 0.6874999820529247 0  1.312499948378797 0.6874999794860082 0  1.374999950212614 0.6874999772850158 0  1.437499952095791 0.6874999756970609 0  1.499999954003134 0.6874999749874459 0  1.562499955955857 0.6874999753344342 0  1.624999957931991 0.6874999767684729 0  1.68749995987563 0.68749997926097 0  1.749999961730745 0.6874999827044849 0  1.812499963382782 0.6874999869309893 0  1.874999964714167 0.6874999918318366 0  1.937499965688309 0.6874999973102203 0  1.999999966286024 0.6875000030119193 0  0.06249996559210495 0.7500000192196559 0  -3.467738897541631e-08 0.7500000156606386 0  0.1249999658138775 0.7500000228111618 0  0.1874999657889559 0.7500000256511491 0  0.249999965368453 0.7500000272509908 0  0.3124999644417402 0.7500000273698982 0  0.374999962963423 0.7500000260233275 0  0.4374999609862782 0.7500000234222947 0  0.4999999586385674 0.7500000198817578 0  0.562499956088542 0.7500000157685623 0  0.6249999535269745 0.7500000114506419 0  0.6874999511366369 0.7500000072368628 0  0.7499999490630854 0.7500000033583714 0  0.8124999474232218 0.7499999999655047 0  0.8749999463144786 0.7499999970932866 0  0.9374999457928275 0.7499999946329156 0  0.9999999458387591 0.7499999923730282 0  1.062499946353285 0.7499999901122214 0  1.124999947207923 0.7499999877523524 0  1.187499948291224 0.7499999853024447 0  1.249999949509842 0.7499999828510655 0  1.312499950790127 0.7499999805536763 0  1.374999952084129 0.7499999786038787 0  1.437499953357759 0.7499999772029387 0  1.499999954593096 0.74999997653772 0  1.562499955789837 0.749999976739004 0  1.624999956941786 0.7499999778562368 0  1.687499958029412 0.7499999798668648 0  1.749999959022048 0.7499999826810121 0  1.812499959871537 0.7499999861543309 0  1.874999960531447 0.7499999901021374 0  1.937499960980319 0.7499999942509392 0  1.999999961199668 0.7499999981190841 0  0.06249996333546047 0.8125000202660317 0  -3.679792996083825e-08 0.8125000181623347 0  0.1249999635059081 0.8125000225941899 0  0.1874999635865983 0.8125000244918348 0  0.2499999634485064 0.8125000255299766 0  0.3124999629884597 0.8125000254827014 0  0.3749999621497121 0.8125000243117864 0  0.4374999609366292 0.812500022130167 0  0.4999999594103031 0.8125000191507797 0  0.5624999576732161 0.8125000156394685 0  0.6249999558530408 0.8125000118716186 0  0.687499954083727 0.8125000080934757 0  0.7499999524892387 0.8125000044977555 0  0.812499951177488 0.8125000012078633 0  0.8749999502349946 0.8124999982621607 0  0.9374999497123815 0.8124999956108085 0  0.9999999496080143 0.8124999931448139 0  1.062499949867536 0.8124999907529304 0  1.124999950405502 0.812499988372108 0  1.187499951130664 0.8124999860055598 0  1.249999951959241 0.8124999837180483 0  1.312499952821883 0.812499981623343 0  1.374999953667525 0.8124999798650248 0  1.437499954462666 0.8124999785943656 0  1.499999955190886 0.8124999779472249 0  1.562499955849506 0.8124999780191885 0  1.624999956440294 0.8124999788484895 0  1.687499956962706 0.8124999804108091 0  1.749999957411093 0.8124999826187388 0  1.812499957774414 0.8124999853224656 0  1.874999958042645 0.8124999883022056 0  1.937499958212081 0.812499991238067 0  1.999999958279277 0.8124999936605134 0  0.06249996222270191 0.8750000211392722 0  -3.783925584172767e-08 0.8750000200819796 0  0.1249999623439753 0.8750000224880264 0  0.1874999624550811 0.8750000236152964 0  0.2499999624606813 0.8750000241608311 0  0.3124999622728739 0.875000023916657 0  0.374999961832065 0.8750000228167616 0  0.4374999611188701 0.8750000209135406 0  0.4999999601557598 0.8750000183448535 0  0.562499959000775 0.8750000152986832 0  0.624999957737154 0.8750000119792462 0  0.687499956460908 0.8750000085774876 0  0.749999955269075 0.8750000052488804 0  0.812499954250555 0.8750000020981044 0  0.8749999534771652 0.8749999991702798 0  0.9374999529928469 0.8749999964536113 0  0.9999999528046835 0.8749999938986437 0  1.062499952882709 0.8749999914498704 0  1.124999953170456 0.8749999890754484 0  1.187499953599779 0.8749999867833091 0  1.249999954103062 0.8749999846232733 0  1.312499954621529 0.8749999826798402 0  1.374999955110173 0.8749999810589522 0  1.437499955539756 0.8749999798713444 0  1.499999955896696 0.8749999792143357 0  1.562499956180427 0.8749999791540775 0  1.624999956398373 0.8749999797118091 0  1.687499956561046 0.8749999808555838 0  1.749999956678798 0.8749999824954594 0  1.81249995676063 0.8749999844789931 0  1.874999956814887 0.874999986582588 0  1.937499956848896 0.8749999884965769 0  1.99999995686548 0.8749999898066052 0  0.06249996189842217 0.9375000218575406 0  -3.813031545260148e-08 0.9375000215482832 0  0.1249999619840505 0.9375000224606651 0  0.1874999620950444 0.9375000229689696 0  0.2499999621671612 0.9375000230907516 0  0.3124999621311553 0.9375000226425801 0  0.3749999619320291 0.9375000215470938 0  0.4374999615405769 0.937500019819018 0  0.499999960957723 0.9375000175433655 0  0.5624999602128345 0.9375000148500203 0  0.6249999593578857 0.9375000118881955 0  0.6874999584592384 0.937
[...]
<PointData  Vectors="u"> 
<DataArray  type="Float64"  Name="u"  NumberOfComponents="3" format="ascii">1.6253661387047672e-24 -2.2563131201489320e-23 0.0000000000000000e+00  -5.6170605648701549e-09 1.5405662070701264e-07 0.0000000000000000e+00  2.6719388720493070e-05 4.2021662734479459e-06 0.0000000000000000e+00  0.0000000000000000e+00 0.0000000000000000e+00 0.0000000000000000e+00  -2.9288441816292569e-08 2.5246413010391779e-07 0.0000000000000000e+00  2.9237196567487339e-05 6.2119302572038619e-06 0.0000000000000000e+00  -6.1434115562680056e-08 3.4395893457359760e-07 0.0000000000000000e+00  2.5020848087709673e-05 6.4481422963700181e-06 0.0000000000000000e+00  -1.1291808450627542e-07 3.7251786747349379e-07 0.0000000000000000e+00  1.9919411309108724e-05 6.0084556121109525e-06 0.0000000000000000e+00  -2.1000076610535375e-07 2.3908878958956723e-07 0.0000000000000000e+00  1.4960779000384878e-05 5.3356217481419872e-06 0.0000000000000000e+00  -2.9345703999851652e-07 1.2120536217275806e-07 0.0000000000000000e+00  1.0409060750990730e-05 4.6162974245543205e-06 0.0000000000000000e+00  -3.7520568438414643e-07 -7.1113413146789548e-09 0.0000000000000000e+00  6.3496214160618791e-06 3.9334117655360699e-06 0.0000000000000000e+00  -4.3990722575141565e-07 -1.2734171927994589e-07 0.0000000000000000e+00  2.7948455385333183e-06 3.3090493473618880e-06 0.0000000000000000e+00  -4.8673215983517291e-07 -2.4030027475213057e-07 0.0000000000000000e+00  -2.6969939028656257e-07 2.7482625793996186e-06 0.0000000000000000e+00  -4.9307344841491075e-07 -3.0120922485683240e-07 0.0000000000000000e+00  -2.8653459044510696e-06 2.2494963423492968e-06 0.0000000000000000e+00  -4.7150415746338012e-07 -3.2737467478079551e-07 0.0000000000000000e+00  -5.0162238169827322e-06 1.8057691165080702e-06 0.0000000000000000e+00  -4.3657750855836726e-07 -3.3823160554768179e-07 0.0000000000000000e+00  -6.7465002007232031e-06 1.4043842739563242e-06 0.0000000000000000e+00  -3.8445635387794594e-07 -3.0765839326209210e-07 0.0000000000000000e+00  -8.0742552009938797e-06 1.0387825322266180e-06 0.0000000000000000e+00  -3.0827849141013392e-07 -2.1113222236634625e-07 0.0000000000000000e+00  -9.0095745683457734e-06 7.0667400326000701e-07 0.0000000000000000e+00  -1.9682496200088926e-07 -2.4428339607710853e-08 0.0000000000000000e+00  -9.5600776050972277e-06 3.9911915230159898e-07 0.0000000000000000e+00  -1.3529717130452566e-07 9.3911240357875943e-08 0.0000000000000000e+00  -9.7394077695271687e-06 9.3078909474405720e-08 0.0000000000000000e+00  -1.2409018617505067e-07 1.2545725451698294e-07 0.0000000000000000e+00  -9.5565094428316255e-06 -2.3321314785760978e-07 0.0000000000000000e+00  -1.0422962592980288e-07 1.9053777189421718e-07 0.0000000000000000e+00  -9.0045505899324524e-06 -5.7685524612876447e-07 0.0000000000000000e+00  -1.0676541149270063e-07 2.2304687998884692e-07 0.0000000000000000e+00  -8.0749931222382323e-06 -9.3795277224236572e-07 0.0000000000000000e+00  -1.4954437387612581e-07 1.7414470179996921e-07 0.0000000000000000e+00  -6.7621658992316681e-06 -1.3331106651959060e-06 0.0000000000000000e+00  -1.6828075186417879e-07 1.7234542156446796e-07 0.0000000000000000e+00  -5.0485062268319875e-06 -1.7636350601825945e-06 0.0000000000000000e+00  -1.9366284023208179e-07 1.5067797642196845e-07 0.0000000000000000e+00  -2.9119263937984509e-06 -2.2327758469061083e-06 0.0000000000000000e+00  -2.3929047056557648e-07 6.4709003429027599e-08 0.0000000000000000e+00  -3.3157076570609690e-07 -2.7602709947441732e-06 0.0000000000000000e+00  -2.4194176609406175e-07 4.6444232399764601e-08 0.0000000000000000e+00  2.7260256120985044e-06 -3.3480238814300527e-06 0.0000000000000000e+00  -2.4078506566703603e-07 2.7881938176809060e-08 0.0000000000000000e+00  6.2967461240369859e-06 -3.9958603154260850e-06 0.0000000000000000e+00  -2.5617663518703946e-07 -3.9128244379686922e-08 0.0000000000000000e+00  1.0410016990176869e-05 -4.7110927843341432e-06 0.0000000000000000e+00  -2.2568645993013545e-07 -2.8822690727589499e-08 0.0000000000000000e+00  1.5095296323606058e-05 -5.4581624814678581e-06 0.0000000000000000e+00  -1.8758867614100265e-07 -1.4022970758326250e-08 0.0000000000000000e+00  2.0341799002756346e-05 -6.1364792626985709e-06 0.0000000000000000e+00  -1.6225847752919358e-07 -4.2002259348536218e-08 0.0000000000000000e+00  2.5944361446584337e-05 -6.5085938189777353e-06 0.0000000000000000e+00  -8.6260255743203825e-08 1.4062235754539893e-08 0.0000000000000000e+00  3.0769696045191356e-05 -5.9914403478602448e-06 0.0000000000000000e+00  -3.9520383443103625e-09 5.1674882033145498e-08 0.0000000000000000e+00  2.9173786588364047e-05 -3.4813168420971322e-06 0.0000000000000000e+00  5.0445620168643872e-26 -7.7417333064772096e-24 0.0000000000000000e+00  0.0000000000000000e+00 0.0000000000000000e+00 0.0000000000000000e+00  3.9610752813746496e-05 6.9819926118089501e-06 0.0000000000000000e+00  0.0000000000000000e+00 0.0000000000000000e+00 0.0000000000000000e+00  4.3444185354540994e-05 1.1144538308288722e-05 0.0000000000000000e+00  3.9756389919634460e-05 1.2287314532575428e-05 0.0000000000000000e+00  3.4082995672174866e-05 1.1960579181105835e-05 0.0000000000000000e+00  2.7997477319121995e-05 1.1002734749318476e-05 0.0000000000000000e+00  2.2060231503298996e-05 9.8188243907865977e-06 0.0000000000000000e+00  1.6516469407746589e-05 8.5980882333077329e-06 0.0000000000000000e+00  1.1484374081435708e-05 7.4196956273459365e-06 0.0000000000000000e+00  7.0199183144741441e-06 6.3122472788808042e-06 0.0000000000000000e+00  3.1461636896420717e-06 5.2793063726220367e-06 0.0000000000000000e+00  -1.2956930264214507e-07 4.3136140466958147e-06 0.0000000000000000e+00  -2.8078610136186082e-06 3.4029747670901179e-06 0.0000000000000000e+00  -4.8920237903728241e-06 2.5349031733777323e-06 0.0000000000000000e+00  -6.3845418591544386e-06 1.6981736508816724e-06 0.0000000000000000e+00  -7.2872777877372707e-06 8.8043737633204276e-07 0.0000000000000000e+00  -7.6026115673926751e-06 6.9297756768330144e-08 0.0000000000000000e+00  -7.3336094816908328e-06 -7.4812585964776408e-07 0.0000000000000000e+00  -6.4803342060939421e-06 -1.5811005464690107e-06 0.0000000000000000e+00  -5.0402328486715305e-06 -2.4362702663592362e-06 0.0000000000000000e+00  -3.0117389161703096e-06 -3.3247733109593045e-06 0.0000000000000000e+00  -3.9233495749665825e-07 -4.2587705331363913e-06 0.0000000000000000e+00  2.8221861284018010e-06 -5.2481043431521483e-06 0.0000000000000000e+00  6.6325157103158078e-06 -6.3050890462322753e-06 0.0000000000000000e+00  1.1035112006854289e-05 -7.4366371894549992e-06 0.0000000000000000e+00  1.6018223547245244e-05 -8.6337403227904270e-06 0.0000000000000000e+00  2.1549365085818673e-05 -9.8628919358174267e-06 0.0000000000000000e+00  2.7562645039826109e-05 -1.1030661248540576e-05 0.0000000000000000e+00  3.3918789553038248e-05 -1.1919693179311116e-05 0.0000000000000000e+00  4.0217242592066137e-05 -1.2084361089599812e-05 0.0000000000000000e+00  4.4856904935958164e-05 -1.0675561529267993e-05 0.0000000000000000e+00  4.0536267087715164e-05 -6.3956953830504301e-06 0.0000000000000000e+00  0.0000000000000000e+00 0.0000000000000000e+00 0.0000000000000000e+00  4.6701228838212491e-05 8.6796116924844075e-06 0.0000000000000000e+00  0.0000000000000000e+00 0.0000000000000000e+00 0.0000000000000000e+00  5.2876670997063441e-05 1.4704692006546514e-05 0.0000000000000000e+00  5.0047563661890787e-05 1.7193081152652584e-05 0.0000000000000000e+00  4.5025104054105877e-05 1.7550676709889916e-05 0.0000000000000000e+00  3.9310029629218161e-05 1.6773936801880091e-05 0.0000000000000000e+00  3.3439242891460169e-05 1.5442104078551372e-05 0.0000000000000000e+00  2.7720438559693016e-05 1.3871047235033704e-05 0.0000000000000000e+00  2.2350083363507050e-05 1.2224426106049786e-05 0.0000000000000000e+00  1.7454224707742017e-05 1.0581175883033121e-05 0.0000000000000000e+00  1.3112957049584420e-05 8.9741504504728884e-06 0.0000000000000000e+00  9.3781662892966439e-06 7.4119609898057233e-06 0.0000000000000000e+00  6.2836403472693652e-06 5.8915117618006173e-06 0.0000000000000000e+00  3.8513449096417698e-06 4.4048281827563899e-06 0.0000000000000000e+00  2.0960740393526784e-06 2.9424711624978762e-06 0.0000000000000000e+00  1.0275634056638634e-06 1.4947046268645800e-06 0.0000000000000000e+00  6.5086481014480931e-07 5.2311656282570557e-08 0.0000000000000000e+00  9.6679030870187797e-07 -1.3931761373617110e-06 0.0000000000000000e+00  1.9727527835781893e-06 -2.8494282655881785e-06 0.0000000000000000e+00  3.6628914671968129e-06 -4.3236578922862979e-06 0.0000000000000000e+00  6.0269610759160386e-06 -5.8238879288192813e-06 0.0000000000000000e+00  9.0496093464029263e-06 -7.3584337586295636e-06 0.0000000000000000e+00  1.2708703419511108e-05 -8.9334502004493763e-06 0.0000000000000000e+00  1.6971929503919831e-05 -1.0549600061485459e-05 0.0000000000000000e+00  2.1792525815468939e-05 -1.2194630507602094e-05 0.0000000000000000e+00  2.7103243923355867e-05 -1.3829515042204280e-05 0.0000000000000000e+00  3.2807609072931243e-05 -1.5366188778641091e-05 0.0000000000000000e+00  3.8769744038497576e-05 -1.6628495257246266e-05 0.0000000000000000e+00  4.4784815450888736e-05 -1.7288202224497054e-05 0.0000000000000000e+00  5.0407068350728926e-05 -1.6774097443043996e-05 0.0000000000000000e+00  5.3957581926184511e-05 -1.4177656316783561e-05 0.0000000000000000e+00  4.7513591880852005e-05 -8.3532483858118688e-06 0.0000000000000000e+00  0.0000000000000000e+00 0.0000000000000000e+00 0.0000000000000000e+00  5.2484645581325710e-05 9.8257162296646016e-06 0.0000000000000000e+00  0.0000000000000000e+00 0.0000000000000000e+00 0.0000000000000000e+00  6.0370638037471015e-05 1.7163293085069297e-05 0.0000000000000000e+00  5.8508983107211771e-05 2.0938604662294517e-05 0.0000000000000000e+00  5.4477579823140910e-05 2.2210777214173756e-05 0.0000000000000000e+00  4.9699635742718661e-05 2.1928733584280324e-05 0.0000000000000000e+00  4.4610645713507554e-05 2.0739845203581479e-05 0.0000000000000000e+00  3.9477050700249109e-05 1.9049410883281670e-05 0.0000000000000000e+00  3.4506105923502443e-05 1.7098160695728610e-05 0.0000000000000000e+00  2.9856785907150136e-05 1.5022385573404757e-05 0.0000000000000000e+00  2.5647213343061781e-05 1.2894851498271233e-05 0.0000000000000000e+00  2.1964924110447061e-05 1.0751148706448254e-05 0.0000000000000000e+00  1.8874045815131744e-05 8.6063277328491585e-06 0.0000000000000000e+00  1.6420725215400413e-05 6.4649901981623188e-06 0.0000000000000000e+00  1.4637786185354725e-05 4.3270242371673559e-06 0.0000000000000000e+00  1.3547410488290576e-05 2.1906508973306005e-06 0.0000000000000000e+00  1.3162199126257149e-05 5.3923766076394383e-08 0.0000000000000000e+00  1.3485786748936134e-05 -2.0846520618013374e-06 0.0000000000000000e+00  1.4513316055422420e-05 -4.2261115433384592e-06 0.0000000000000000e+00  1.6231227799786332e-05 -6.3712106003735216e-06 0.0000000000000000e+00  1.8616826087615742e-05 -8.5201942859014807e-06 0.0000000000000000e+00  2.1636890593262200e-05 -1.0671428653091951e-05 0.0000000000000000e+00  2.5245723566172747e-05 -1.2818060116345185e-05 0.0000000000000000e+00  2.9382003937516618e-05 -1.4941864693461559e-05 0.0000000000000000e+00  3.3965279546871861e-05 -1.7002921849424789e-05 0.0000000000000000e+00  3.8892424481558721e-05 -1.8922886283044177e-05 0.0000000000000000e+00  4.4034994473434353e-05 -2.0559137343557525e-05 0.0000000000000000e+00  4.9240406236291760e-05 -2.1666730123808189e-05 0.0000000000000000e+00  5.4319936626246281e-05 -2.1846849370714103e-05 0.0000000000000000e+00  5.8891625093691736e-05 -2.0489047293146734e-05 0.0000000000000000e+00  6.1324752021661656e-05 -1.6741671526683548e-05 0.0000000000000000e+00  5.3190411818511249e-05 -9.6662446483495782e-06 0.0000000000000000e+00  0.0000000000000000e+00 0.0000000000000000e+00 0.0000000000000000e+00  5.7679807981661992e-05 1.0537814831858099e-05 0.0000000000000000e+00  0.0000000000000000e+00 0.0000000000000000e+00 0.0000000000000000e+00  6.7027546542743700e-05 1.8750116544285959e-05 0.0000000000000000e+00  6.6138102953223172e-05 2.3531088890130928e-05 0.0000000000000000e+00  6.3213793397565602e-05 2.5673565852960838e-05 0.0000000000000000e+00  5.9647599182040349e-05 2.5996887524011820e-05 0.0000000000000000e+00  5.5741628836693025e-05 2.5130496005144938e-05 0.0000000000000000e+00  5.1674876268743974e-05 2.3513299162417261e-05 0.0000000000000000e+00  4.7615981436789799e-05 2.1434003739192351e-05 0.0000000000000000e+00  4.3717516535094789e-05 1.9074397321327515e-05 0.0000000000000000e+00  4.0108217854309336e-05 1.6544730814365776e-05 0.0000000000000000e+00  3.6893219283194522e-05 1.3909795675246866e-05 0.0000000000000000e+00  3.4155509263750467e-05 1.1207069120884680e-05 0.0000000000000000e+00  3.1958371381835550e-05 8.4586861700277010e-06 0.0000000000000000e+00  3.0348632876522627e-05 5.6789695988687740e-06 0.0000000000000000e+00  2.9358727327080310e-05 2.8787825403581997e-06 0.0000000000000000e+00  2.9007570348341142e-05 6.7855459491352304e-08 0.0000000000000000e+00  2.9301084765863782e-05 -2.7441438027416692e-06 0.0000000000000000e+00  3.0232409109671027e-05 -5.5472048423239177e-06 0.0000000000000000e+00  3.1781961811584715e-05 -8.3306440636644497e-06 0.0000000000000000e+00  3.3916860121669796e-05 -1.1082219085722672e-05 0.0000000000000000e+00  3.6590439101297200e-05 -1.3785805604827740e-05 0.0000000000000000e+00  3.9740507761620174e-05 -1.6416975756143429e-05 0.0000000000000000e+00  4.3287719622325821e-05 -1.8935379696886936e-05 0.0000000000000000e+00  4.7135076042022419e-05 -2.1272785828768135e-05 0.0000000000000000e+00  5.1168914862127388e-05 -2.3315545096336978e-05 0.0000000000000000e+00  5.5263927912075223e-05 -2.4880079608105178e-05 0.0000000000000000e+00  5.9296281835842312e-05 -2.5681167406155622e-05 0.0000000000000000e+00  6.3145196520785409e-05 -2.5296198749286952e-05 0.0000000000000000e+00  6.6535874070064251e-05 -2.3135963092121391e-05 0.0000000000000000e+00  6.7896447520259242e-05 -1.8450028233202869e-05 0.0000000000000000e+00  5.8277161087916082e-05 -1.0482469789936093e-05 0.0000000000000000e+00  0.0000000000000000e+00 0.0000000000000000e+00 0.0000000000000000e+00  6.2454282979596606e-05 1.0831996739543062e-05 0.0000000000000000e+00  0.0000000000000000e+00 0.0000000000000000e+00 0.0000000000000000e+00  7.3193657878279457e-05 1.9519609436041594e-05 0.0000000000000000e+00  7.3291049136490571e-05 2.4973001457580136e-05 0.0000000000000000e+00  7.1552998283343965e-05 2.7806965849207793e-05 0.0000000000000000e+00  6.9352957858017969e-05 2.8705203611091905e-05 0.0000000000000000e+00  6.6870474290309231e-05 2.8234782208171039e-05 0.0000000000000000e+00  6.4180525721522914e-05 2.6822807987610278e-05 0.0000000000000000e+00  6.1385201665740242e-05 2.4772490163045531e-05 0.0000000000000000e+00  5.8602102560644614e-05 2.2290171835252589e-05 0.0000000000000000e+00  5.5946156580971844e-05 1.9512251356352536e-05 0.0000000000000000e+00  5.3521192730884893e-05 1.6527718534098638e-05 0.0000000000000000e+00  5.1415290300165534e-05 1.3395347914925422e-05 0.0000000000000000e+00  4.9699310890348628e-05 1.0156016409863750e-05 0.0000000000000000e+00  4.8427695268028313e-05 6.8408620023810598e-06 0.0000000000000000e+00  4.7639123653653962e-05 3.4763565056691551e-06 0.0000000000000000e+00  4.7356610683831512e-05 8.7127246916130099e-08 0.0000000000000000e+00  4.7587551431311505e-05 -3.3026331078358261e-06 0.0000000000000000e+00  4.8323907963134634e-05 -6.6684485928369588e-06 0.0000000000000000e+00  4.9542136998574107e-05 -9.9849172033045123e-06 0.0000000000000000e+00  5.1203539621116926e-05 -1.3224341621717374e-05 0.0000000000000000e+00  5.3254029892508860e-05 -1.6354014216810651e-05 0.0000000000000000e+00  5.5624357144056152e-05 -1.9331166248642086e-05 0.0000000000000000e+00  5.8230371205035626e-05 -2.2094890059543462e-05 0.0000000000000000e+00  6.0976006140533164e-05 -2.4554245460611200e-05 0.0000000000000000e+00  6.3759966268435840e-05 -2.6571859011380741e-05 0.0000000000000000e+00  6.6487594428812802e-05 -2.7943127503355188e-05 0.0000000000000000e+00  6.9092292403743425e-05 -2.8372535700940342e-05 0.0000000000000000e+00  7.1544085935436777e-05 -2.7451292710852740e-05 0.0000000000000000e+00  7.3682483903183058e-05 -2.4645687247434046e-05 0.0000000000000000e+00  7.3979143256168935e-05 -1.9315450707349233e-05 0.0000000000000000e+00  6.2966561958840904e-05 -1.0849094880239051e-05 0.0000000000000000e+00  0.0000000000000000e+00 0.0000000000000000e+00 0.0000000000000000e+00  6.6848977726464631e-05 1.0695097007155471e-05 0.0000000000000000e+00  0.0000000000000000e+00 0.0000000000000000e+00 0.0000000000000000e+00  7.8944045304503796e-05 1.9458721950558169e-05 0.0000000000000000e+00  8.0057992321002830e-05 2.5240912918469667e-05 0.0000000000000000e+00  7.9560123826183835e-05 2.8532569702637730e-05 0.0000000000000000e+00  7.8815291266521234e-05 2.9897452264397501e-05 0.0000000000000000e+00  7.7894035273832964e-05 2.9822585804747477e-05 0.0000000000000000e+00  7.6766688745182607e-05 2.8693830843146847e-05 0.0000000000000000e+00  7.5457122764142391e-05 2.6800553923751503e-05 0.0000000000000000e+00  7.4030950343021110e-05 2.4351585368455142e-05 0.0000000000000000e+00  7.2571698633491235e-05 2.1494268879586207e-05 0.0000000000000000e+00  7.1166309176272830e-05 1.8332325748734234e-05 0.0000000000000000e+00  6.9895359090627344e-05 1.4940716228510480e-05 0.0000000000000000e+00  6.8827636785383751e-05 1.1376824067854488e-05 0.0000000000000000e+00  6.8018259633987065e-05 7.6883164668226248e-06 0.0000000000000000e+00  6.7507508759426775e-05 3.9181138192520999e-06 0.0000000000000000e+00  6.7319796303397459e-05 1.0723280442168100e-07 0.0000000000000000e+00  6.7463154843621880e-05 -3.7037928064014877e-06 0.0000000000000000e+00  6.7929090541337550e-05 -7.4742171771234994e-06 0.0000000000000000e+00  6.8692970331209234e-05 -1.1162377099088197e-05 0.0000000000000000e+00  6.9714510650194158e-05 -1.4724380558917470e-05 0.0000000000000000e+00  7.0939385063797030e-05 -1.8111306785371219e-05 0.0000000000000000e+00  7.2300349403674541e-05 -2.1264426793477257e-05 0.0000000000000000e+00  7.3720473756216852e-05 -2.4107574572616348e-05 0.0000000000000000e+00  7.5119739737918161e-05 -2.6536360591219388e-05 0.0000000000000000e+00  7.6425918699848645e-05 -2.8404318905409033e-05 0.0000000000000000e+00  7.7592012655609577e-05 -2.9506445016412726e-05 0.0000000000000000e+00  7.8622875408604337e-05 -2.9562348180553778e-05 0.0000000000000000e+00  7.9584804553744877e-05 -2.8203123371467272e-05 0.0000000000000000e+00  8.0424585793787190e-05 -2.4967987685379569e-05 0.0000000000000000e+00  7.9645417698931501e-05 -1.9322950298401353e-05 0.0000000000000000e+00  6.7294212669847508e-05 -1.0769283464922240e-05 0.0000000000000000e+00  0.0000000000000000e+00 0.0000000000000000e+00 0.0000000000000000e+00  7.0837071228242854e-05 1.0110427790019373e-05 0.0000000000000000e+00  0.0000000000000000e+00 0.0000000000000000e+00 0.0000000000000000e+00  8.4240115294689235e-05 1.8544509523620613e-05 0.0000000000000000e+00  8.6386784931406354e-05 2.4312207432469978e-05 0.0000000000000000e+00  8.7151718645185901e-05 2.7810271662515874e-05 0.0000000000000000e+00  8.7895432526531719e-05 2.9497007618359738e-05 0.0000000000000000e+00  8.8591395332943823e-05 2.9773671521133985e-05 0.0000000000000000e+00  8.9111557634052955e-05 2.8967174900823444e-05 0.0000000000000000e+00  8.9399607217275040e-05 2.7331927085980795e-05 0.0000000000000000e+00  8.9461406271570249e-05 2.5059868379985708e-05 0.0000000000000000e+00  8.9338678017380959e-05 2.2293816159487221e-05 0.0000000000000000e+00  8.9090779217276575e-05 1.9141064010924076e-05 0.0000000000000000e+00  8.8781043256393966e-05 1.5685223200614078e-05 0.0000000000000000e+00  8.8468124940730282e-05 1.1995603616797846e-05 0.0000000000000000e+00  8.8201565022044266e-05 8.1338428624165443e-06 0.0000000000000000e+00  8.8018851366230603e-05 4.1581594373471306e-06 0.0000000000000000e+00  8.7943205906864145e-05 1.2564816360621624e-07 0.0000000000000000e+00  8.7982363338674074e-05 -3.9067407866708829e-06 0.00