<?xml version="1.0"?>
<VTKFile type="UnstructuredGrid"  version="0.1"  >
<UnstructuredGrid>
<Piece  NumberOfPoints="759" NumberOfCells="1408">
<Points>
<DataArray  type="Float64"  NumberOfComponents="3"  format="ascii">0 0.46875 0  0.03125 0.46875 0  0.03125 0.515625 0  0 0.515625 0  0.0625 0.46875 0  0.0625 0.515625 0  0.09375 0.46875 0  0.09375 0.515625 0  0.125 0.46875 0  0.125 0.515625 0  0.15625 0.46875 0  0.15625 0.515625 0  0.1875 0.46875 0  0.1875 0.515625 0  0.21875 0.46875 0  0.21875 0.515625 0  0.25 0.46875 0  0.25 0.515625 0  0.28125 0.46875 0  0.28125 0.515625 0  0.3125 0.46875 0  0.3125 0.515625 0  0.34375 0.46875 0  0.34375 0.515625 0  0.375 0.46875 0  0.375 0.515625 0  0.40625 0.46875 0  0.40625 0.515625 0  0.4375 0.46875 0  0.4375 0.515625 0  0.46875 0.46875 0  0.46875 0.515625 0  0.5 0.46875 0  0.5 0.515625 0  0.53125 0.46875 0  0.53125 0.515625 0  0.5625 0.46875 0  0.5625 0.515625 0  0.59375 0.46875 0  0.59375 0.515625 0  0.625 0.46875 0  0.625 0.515625 0  0.65625 0.46875 0  0.65625 0.515625 0  0.6875 0.46875 0  0.6875 0.515625 0  0.71875 0.46875 0  0.71875 0.515625 0  0.75 0.46875 0  0.75 0.515625 0  0.78125 0.46875 0  0.78125 0.515625 0  0.8125 0.46875 0  0.8125 0.515625 0  0.84375 0.46875 0  0.84375 0.515625 0  0.875 0.46875 0  0.875 0.515625 0  0.90625 0.46875 0  0.90625 0.515625 0  0.9375 0.46875 0  0.9375 0.515625 0  0.96875 0.46875 0  0.96875 0.515625 0  1 0.46875 0  1 0.515625 0  0.03125 0.5625 0  0 0.5625 0  0.0625 0.5625 0  0.09375 0.5625 0  0.125 0.5625 0  0.15625 0.5625 0  0.1875 0.5625 0  0.21875 0.5625 0  0.25 0.5625 0  0.28125 0.5625 0  0.3125 0.5625 0  0.34375 0.5625 0  0.375 0.5625 0  0.40625 0.5625 0  0.4375 0.5625 0  0.46875 0.5625 0  0.5 0.5625 0  0.53125 0.5625 0  0.5625 0.5625 0  0.59375 0.5625 0  0.625 0.5625 0  0.65625 0.5625 0  0.6875 0.5625 0  0.71875 0.5625 0  0.75 0.5625 0  0.78125 0.5625 0  0.8125 0.5625 0  0.84375 0.5625 0  0.875 0.5625 0  0.90625 0.5625 0  0.9375 0.5625 0  0.96875 0.5625 0  1 0.5625 0  0.03125 0.609375 0  0 0.609375 0  0.0625 0.609375 0  0.09375 0.609375 0  0.125 0.609375 0  0.15625 0.609375 0  0.1875 0.609375 0  0.21875 0.609375 0  0.25 0.609375 0  0.28125 0.609375 0  0.3125 0.609375 0  0.34375 0.609375 0  0.375 0.609375 0  0.40625 0.609375 0  0.4375 0.609375 0  0.46875 0.609375 0  0.5 0.609375 0  0.53125 0.609375 0  0.5625 0.609375 0  0.59375 0.609375 0  0.625 0.609375 0  0.65625 0.609375 0  0.6875 0.609375 0  0.71875 0.609375 0  0.75 0.609375 0  0.78125 0.609375 0  0.8125 0.609375 0  0.84375 0.609375 0  0.875 0.609375 0  0.90625 0.609375 0  0.9375 0.609375 0  0.96875 0.609375 0  1 0.609375 0  0.03125 0.65625 0  0 0.65625 0  0.0625 0.65625 0  0.09375 0.65625 0  0.125 0.65625 0  0.15625 0.65625 0  0.1875 0.65625 0  0.21875 0.65625 0  0.25 0.65625 0  0.28125 0.65625 0  0.3125 0.65625 0  0.34375 0.65625 0  0.375 0.65625 0  0.40625 0.65625 0  0.4375 0.65625 0  0.46875 0.65625 0  0.5 0.65625 0  0.53125 0.65625 0  0.5625 0.65625 0  0.59375 0.65625 0  0.625 0.65625 0  0.65625 0.65625 0  0.6875 0.65625 0  0.71875 0.65625 0  0.75 0.65625 0  0.78125 0.65625 0  0.8125 0.65625 0  0.84375 0.65625 0  0.875 0.65625 0  0.90625 0.65625 0  0.9375 0.65625 0  0.96875 0.65625 0  1 0.65625 0  0.03125 0.703125 0  0 0.703125 0  0.0625 0.703125 0  0.09375 0.703125 0  0.125 0.703125 0  0.15625 0.703125 0  0.1875 0.703125 0  0.21875 0.703125 0  0.25 0.703125 0  0.28125 0.703125 0  0.3125 0.703125 0  0.34375 0.703125 0  0.375 0.703125 0  0.40625 0.703125 0  0.4375 0.703125 0  0.46875 0.703125 0  0.5 0.703125 0  0.53125 0.703125 0  0.5625 0.703125 0  0.59375 0.703125 0  0.625 0.703125 0  0.65625 0.703125 0  0.6875 0.703125 0  0.71875 0.703125 0  0.75 0.703125 0  0.78125 0.703125 0  0.8125 0.703125 0  0.84375 0.703125 0  0.875 0.703125 0  0.90625 0.703125 0  0.9375 0.703125 0  0.96875 0.703125 0  1 0.703125 0  0.03125 0.75 0  0 0.75 0  0.0625 0.75 0  0.09375 0.75 0  0.125 0.75 0  0.15625 0.75 0  0.1875 0.75 0  0.21875 0.75 0  0.25 0.75 0  0.28125 0.75 0  0.3125 0.75 0  0.34375 0.75 0  0.375 0.75 0  0.40625 0.75 0  0.4375 0.75 0  0.46875 0.75 0  0.5 0.75 0  0.53125 0.75 0  0.5625 0.75 0  0.59375 0.75 0  0.625 0.75 0  0.65625 0.75 0  0.6875 0.75 0  0.71875 0.75 0  0.75 0.75 0  0.78125 0.75 0  0.8125 0.75 0  0.84375 0.75 0  0.875 0.75 0  0.90625 0.75 0  0.9375 0.75 0  0.96875 0.75 0  1 0.75 0  0.03125 0.796875 0  0 0.796875 0  0.0625 0.796875 0  0.09375 0.796875 0  0.125 0.796875 0  0.15625 0.796875 0  0.1875 0.796875 0  0.21875 0.796875 0  0.25 0.796875 0  0.28125 0.796875 0  0.3125 0.796875 0  0.34375 0.796875 0  0.375 0.796875 0  0.40625 0.796875 0  0.4375 0.796875 0  0.46875 0.796875 0  0.5 0.796875 0  0.53125 0.796875 0  0.5625 0.796875 0  0.59375 0.796875 0  0.625 0.796875 0  0.65625 0.796875 0  0.6875 0.796875 0  0.71875 0.796875 0  0.75 0.796875 0  0.78125 0.796875 0  0.8125 0.796875 0  0.84375 0.796875 0  0.875 0.796875 0  0.90625 0.796875 0  0.9375 0.796875 0  0.96875 0.796875 0  1 0.796875 0  0.03125 0.84375 0  0 0.84375 0  0.0625 0.84375 0  0.09375 0.84375 0  0.125 0.84375 0  0.15625 0.84375 0  0.1875 0.84375 0  0.21875 0.84375 0  0.25 0.84375 0  0.28125 0.84375 0  0.3125 0.84375 0  0.34375 0.84375 0  0.375 0.84375 0  0.40625 0.84375 0  0.4375 0.84375 0  0.46875 0.84375 0  0.5 0.84375 0  0.53125 0.84375 0  0.5625 0.84375 0  0.59375 0.84375 0  0.625 0.84375 0  0.65625 0.84375 0  0.6875 0.84375 0  0.71875 0.84375 0  0.75 0.84375 0  0.78125 0.84375 0  0.8125 0.84375 0  0.84375 0.84375 0  0.875 0.84375 0  0.90625 0.84375 0  0.9375 0.84375 0  0.96875 0.84375 0  1 0.84375 0  0.03125 0.890625 0  0 0.890625 0  0.0625 0.890625 0  0.09375 0.890625 0  0.125 0.890625 0  0.15625 0.890625 0  0.1875 0.890625 0  0.21875 0.890625 0  0.25 0.890625 0  0.28125 0.890625 0  0.3125 0.890625 0  0.34375 0.890625 0  0.375 0.890625 0  0.40625 0.890625 0  0.4375 0.890625 0  0.46875 0.890625 0  0.5 0.890625 0  0.53125 0.890625 0  0.5625 0.890625 0  0.59375 0.890625 0  0.625 0.890625 0  0.65625 0.890625 0  0.6875 0.890625 0  0.71875 0.890625 0  0.75 0.890625 0  0.78125 0.890625 0  0.8125 0.890625 0  0.84375 0.890625 0  0.875 0.890625 0  0.90625 0.890625 0  0.9375 0.890625 0  0.96875 0.890625 0  1 0.890625 0  0.03125 0.9375 0  0 0.9375 0  0.0625 0.9375 0  0.09375 0.9375 0  0.125 0.9375 0  0.15625 0.9375 0  0.1875 0.9375 0  0.21875 0.9375 0  0.25 0.9375 0  0.28125 0.9375 0  0.3125 0.9375 0  0.34375 0.9375 0  0.375 0.9375 0  0.40625 0.9375 0  0.4375 0.9375 0  0.46875 0.9375 0  0.5 0.9375 0  0.53125 0.9375 0  0.5625 0.9375 0  0.59375 0.9375 0  0.625 0.9375 0  0.65625 0.9375 0  0.6875 0.9375 0  0.71875 0.9375 0  0.75 0.9375 0  0.78125 0.9375 0  0.8125 0.9375 0  0.84375 0.9375 0  0.875 0.9375 0  0.90625 0.9375 0  0.9375 0.9375 0  0.96875 0.9375 0  1 0.9375 0  0.03125 0.984375 0  0 0.984375 0  0.0625 0.984375 0  0.09375 0.984375 0  0.125 0.984375 0  0.15625 0.984375 0  0.1875 0.984375 0  0.21875 0.984375 0  0.25 0.984375 0  0.28125 0.984375 0  0.3125 0.984375 0  0.34375 0.984375 0  0.375 0.984375 0  0.40625 0.984375 0  0.4375 0.984375 0  0.46875 0.984375 0  0.5 0.984375 0  0.53125 0.984375 0  0.5625 0.984375 0  0.59375 0.984375 0  0.625 0.984375 0  0.65625 0.984375 0  0.6875 0.984375 0  0.71875 0.984375 0  0.75 0.984375 0  0.78125 0.984375 0  0.8125 0.984375 0  0.84375 0.984375 0  0.875 0.984375 0  0.90625 0.984375 0  0.9375 0.984375 0  0.96875 0.984375 0  1 0.984375 0  0.03125 1.03125 0  0 1.03125 0  0.0625 1.03125 0  0.09375 1.03125 0  0.125 1.03125 0  0.15625 1.03125 0  0.1875 1.03125 0  0.21875 1.03125 0  0.25 1.03125 0  0.28125 1.03125 0  0.3125 1.03125 0  0.34375 1.03125 0  0.375 1.03125 0  0.40625 1.03125 0  0.4375 1.03125 0  0.46875 1.03125 0  0.5 1.03125 0  0.53125 1.03125 0  0.5625 1.03125 0  0.59375 1.03125 0  0.625 1.03125 0  0.65625 1.03125 0  0.6875 1.03125 0  0.71875 1.03125 0  0.75 1.03125 0  0.78125 1.03125 0  0.8125 1.03125 0  0.84375 1.03125 0  0.875 1.03125 0  0.90625 1.03125 0  0.9375 1.03125 0  0.96875 1.03125 0  1 1.03125 0  0.03125 1.078125 0  0 1.078125 0  0.0625 1.078125 0  0.09375 1.078125 0  0.125 1.078125 0  0.15625 1.078125 0  0.1875 1.078125 0  0.21875 1.078125 0  0.25 1.078125 0  0.28125 1.078125 0  0.3125 1.078125 0  0.34375 1.078125 0  0.375 1.078125 0  0.40625 1.078125 0  0.4375 1.078125 0  0.46875 1.078125 0  0.5 1.078125 0  0.53125 1.078125 0  0.5625 1.078125 0  0.59375 1.078125 0  0.625 1.078125 0  0.65625 1.078125 0  0.6875 1.078125 0  0.71875 1.078125 0  0.75 1.078125 0  0.78125 1.078125 0  0.8125 1.078125 0  0.84375 1.078125 0  0.875 1.078125 0  0.90625 1.078125 0  0.9375 1.078125 0  0.96875 1.078125 0  1 1.078125 0  0.03125 1.125 0  0 1.125 0  0.0625 1.125 0  0.09375 1.125 0  0.125 1.125 0  0.15625 1.125 0  0.1875 1.125 0  0.21875 1.125 0  0.25 1.125 0  0.28125 1.125 0  0.3125 1.125 0  0.34375 1.125 0  0.375 1.125 0  0.40625 1.125 0  0.4375 1.125 0  0.46875 1.125 0  0.5 1.125 0  0.53125 1.125 0  0.5625 1.125 0  0.59375 1.125 0  0.625 1.125 0  0.65625 1.125 0  0.6875 1.125 0  0.71875 1.125 0  0.75 1.125 0  0.78125 1.125 0  0.8125 1.125 0  0.84375 1.125 0  0.875 1.125 0  0.90625 1.125 0  0.9375 1.125 0  0.96875 1.125 0  1 1.125 0  0.03125 1.171875 0  0 1.171875 0  0.0625 1.171875 0  0.09375 1.171875 0  0.125 1.171875 0  0.15625 1.171875 0  0.1875 1.171875 0  0.21875 1.171875 0  0.25 1.171875 0  0.28125 1.171875 0  0.3125 1.171875 0  0.34375 1.171875 0  0.375 1.171875 0  0.40625 1.171875 0  0.4375 1.171875 0  0.46875 1.171875 0  0.5 1.171875 0  0.53125 1.171875 0  0.5625 1.171875 0  0.59375 1.171875 0  0.625 1.171875 0  0.65625 1.171875 0  0.6875 1.171875 0  0.71875 1.171875 0  0.75 1.171875 0  0.78125 1.171875 0  0.8125 1.171875 0  0.84375 1.171875 0  0.875 1.171875 0  0.90625 1.171875 0  0.9375 1.171875 0  0.96875 1.171875 0  1 1.171875 0  0.03125 1.21875 0  0 1.21875 0  0.0625 1.21875 0  0.09375 1.21875 0  0.125 1.21875 0  0.15625 1.21875 0  0.1875 1.21875 0  0.21875 1.21875 0  0.25 1.21875 0  0.28125 1.21875 0  0.3125 1.21875 0  0.34375 1.21875 0  0.375 1.21875 0  0.40625 1.21875 0  0.4375 1.21875 0  0.46875 1.21875 0  0.5 1.21875 0  0.53125 1.21875 0  0.5
[...]
<PointData  Vectors="u"> 
<DataArray  type="Float64"  Name="u"  NumberOfComponents="3" format="ascii">1.4098667552497703e-02 7.1467694360091629e-04 0.0000000000000000e+00  1.6254350057417336e-02 3.9870374546833497e-03 0.0000000000000000e+00  1.7884416353134144e-02 4.2692699840085075e-03 0.0000000000000000e+00  1.5319260482181695e-02 9.3264980440818234e-04 0.0000000000000000e+00  1.5702069066836861e-02 7.2601612487209755e-03 0.0000000000000000e+00  1.7497537113273287e-02 7.8558917678925623e-03 0.0000000000000000e+00  1.4610118394626130e-02 1.0187186500384143e-02 0.0000000000000000e+00  1.6192236033093329e-02 1.1025413057491783e-02 0.0000000000000000e+00  1.3180056174132542e-02 1.2648644472955408e-02 0.0000000000000000e+00  1.4531674033650487e-02 1.3666336761116442e-02 0.0000000000000000e+00  1.1519847146956658e-02 1.4578827909899080e-02 0.0000000000000000e+00  1.2669032565165625e-02 1.5717103629742640e-02 0.0000000000000000e+00  9.7191696181125834e-03 1.5933470617809548e-02 0.0000000000000000e+00  1.0693430461729278e-02 1.7139373514318306e-02 0.0000000000000000e+00  7.8563116318877604e-03 1.6688550681137088e-02 0.0000000000000000e+00  8.6798868032490969e-03 1.7915204589692577e-02 0.0000000000000000e+00  6.0002400027863853e-03 1.6840001725791965e-02 0.0000000000000000e+00  6.6943950923381004e-03 1.8046115209157498e-02 0.0000000000000000e+00  4.2115681661198025e-03 1.6402494770386064e-02 0.0000000000000000e+00  4.7948441624335132e-03 1.7551953482455834e-02 0.0000000000000000e+00  2.5431546139175689e-03 1.5407811659737371e-02 0.0000000000000000e+00  3.0318321592510840e-03 1.6469260958289073e-02 0.0000000000000000e+00  1.0406081960804246e-03 1.3902893660337675e-02 0.0000000000000000e+00  1.4488713663093628e-03 1.4849464652331801e-02 0.0000000000000000e+00  -2.5734566568254237e-04 1.1947862344864980e-02 0.0000000000000000e+00  8.2946606368586339e-05 1.2756872374774084e-02 0.0000000000000000e+00  -1.3184793216427469e-03 9.6139396917125051e-03 0.0000000000000000e+00  -1.0353257661934448e-03 1.0266723390687691e-02 0.0000000000000000e+00  -2.1168409514288073e-03 6.9814565513176829e-03 0.0000000000000000e+00  -1.8813631477688285e-03 7.4631789963605618e-03 0.0000000000000000e+00  -2.6325501384787419e-03 4.1378271180384204e-03 0.0000000000000000e+00  -2.4365790156676234e-03 4.4374240053984323e-03 0.0000000000000000e+00  -2.8516767302319626e-03 1.1756078993356836e-03 0.0000000000000000e+00  -2.6881691951522631e-03 1.2857282569311184e-03 0.0000000000000000e+00  -2.7661776798431786e-03 -1.8094775424556187e-03 0.0000000000000000e+00  -2.6292153706947057e-03 -1.8924080325723042e-03 0.0000000000000000e+00  -2.3739570928922303e-03 -4.7204870802243669e-03 0.0000000000000000e+00  -2.2587165982520855e-03 -4.9961806035498249e-03 0.0000000000000000e+00  -1.6789582786740735e-03 -7.4612894456240293e-03 0.0000000000000000e+00  -1.5818271562636013e-03 -7.9254036586671288e-03 0.0000000000000000e+00  -6.9133681716444502e-04 -9.9386358427316444e-03 0.0000000000000000e+00  -6.1004341562802115e-04 -1.0582557435658434e-02 0.0000000000000000e+00  5.7230731108405975e-04 -1.2064366721207590e-02 0.0000000000000000e+00  6.3836509277311309e-04 -1.2874906968504556e-02 0.0000000000000000e+00  2.0886281759357537e-03 -1.3757704891611213e-02 0.0000000000000000e+00  2.1380077496320755e-03 -1.4716790373655057e-02 0.0000000000000000e+00  3.8272829946996326e-03 -1.4947709707443173e-02 0.0000000000000000e+00  3.8558807850013347e-03 -1.6032009324844138e-02 0.0000000000000000e+00  5.7506379705748057e-03 -1.5575806320477933e-02 0.0000000000000000e+00  5.7509985486232373e-03 -1.6756379189801860e-02 0.0000000000000000e+00  7.8135410433646541e-03 -1.5598423559103416e-02 0.0000000000000000e+00  7.7738828820047932e-03 -1.6840324722613625e-02 0.0000000000000000e+00  9.9629360561912933e-03 -1.4989626820969394e-02 0.0000000000000000e+00  9.8661739826528677e-03 -1.6251523252575534e-02 0.0000000000000000e+00  1.2136629684809445e-02 -1.3743759414205367e-02 0.0000000000000000e+00  1.1959463079224963e-02 -1.4977446534964703e-02 0.0000000000000000e+00  1.4257685588088440e-02 -1.1878149337207185e-02 0.0000000000000000e+00  1.3971301499923251e-02 -1.3027857806011969e-02 0.0000000000000000e+00  1.6208217191375520e-02 -9.4369178553621383e-03 0.0000000000000000e+00  1.5786219246107343e-02 -1.0437839303060905e-02 0.0000000000000000e+00  1.7710455062540393e-02 -6.5025705582998777e-03 0.0000000000000000e+00  1.7169529615194325e-02 -7.2763820041088327e-03 0.0000000000000000e+00  1.7887194577922545e-02 -3.2678121507873502e-03 0.0000000000000000e+00  1.7422238801400407e-02 -3.6992385252278192e-03 0.0000000000000000e+00  1.5158683735739179e-02 -3.0023044514502746e-04 0.0000000000000000e+00  1.4561344952726927e-02 -4.1170769597696734e-04 0.0000000000000000e+00  1.9785468289791507e-02 5.0642813924174539e-03 0.0000000000000000e+00  1.7152059566453697e-02 1.3987195343253681e-03 0.0000000000000000e+00  1.9278111761911638e-02 9.3078245687222248e-03 0.0000000000000000e+00  1.7899448350945993e-02 1.3004773215686461e-02 0.0000000000000000e+00  1.6130850974442716e-02 1.6028205125092808e-02 0.0000000000000000e+00  1.4141614786795939e-02 1.8329614608978181e-02 0.0000000000000000e+00  1.2034117392720584e-02 1.9884617831110188e-02 0.0000000000000000e+00  9.8896694468280123e-03 2.0688552292998302e-02 0.0000000000000000e+00  7.7784346380583690e-03 2.0755551895935254e-02 0.0000000000000000e+00  5.7619428738466105e-03 2.0117244248228808e-02 0.0000000000000000e+00  3.8932596862878885e-03 1.8821236954429662e-02 0.0000000000000000e+00  2.2179787119065418e-03 1.6929256888731460e-02 0.0000000000000000e+00  7.7428057094218418e-04 1.4515341412538331e-02 0.0000000000000000e+00  -4.0617411009128367e-04 1.1663861652944751e-02 0.0000000000000000e+00  -1.2983137635367704e-03 8.4677546500795398e-03 0.0000000000000000e+00  -1.8830007808153084e-03 5.0266409756317106e-03 0.0000000000000000e+00  -2.1471445830721961e-03 1.4451620094509245e-03 0.0000000000000000e+00  -2.0834066369374003e-03 -2.1688111886839900e-03 0.0000000000000000e+00  -1.6905332122254648e-03 -5.7058241260316087e-03 0.0000000000000000e+00  -9.7333677971267257e-04 -9.0566703078857440e-03 0.0000000000000000e+00  5.6752489394331973e-05 -1.2114191216973862e-02 0.0000000000000000e+00  1.3813999079273155e-03 -1.4775312782381355e-02 0.0000000000000000e+00  2.9745796098901277e-03 -1.6943146816274193e-02 0.0000000000000000e+00  4.8021892612526108e-03 -1.8529344269137882e-02 0.0000000000000000e+00  6.8211759083054080e-03 -1.9456526464751597e-02 0.0000000000000000e+00  8.9791259908078430e-03 -1.9660889572300867e-02 0.0000000000000000e+00  1.1213390879386042e-02 -1.9094762196460342e-02 0.0000000000000000e+00  1.3450011486123809e-02 -1.7729121282726582e-02 0.0000000000000000e+00  1.5598960856973090e-02 -1.5555928869327256e-02 0.0000000000000000e+00  1.7533154274375552e-02 -1.2591083556188168e-02 0.0000000000000000e+00  1.8989373304986838e-02 -8.8842198543407913e-03 0.0000000000000000e+00  1.9150945488660098e-02 -4.5950436681601019e-03 0.0000000000000000e+00  1.5652649648582234e-02 -8.5891521236296676e-04 0.0000000000000000e+00  2.2661477272312297e-02 6.0265514201123041e-03 0.0000000000000000e+00  1.9739061921985161e-02 1.8644493369747521e-03 0.0000000000000000e+00  2.2075963431734763e-02 1.1035336565057223e-02 0.0000000000000000e+00  2.0577952582005194e-02 1.5349954157832918e-02 0.0000000000000000e+00  1.8665679872245020e-02 1.8822118884179676e-02 0.0000000000000000e+00  1.6516017220332937e-02 2.1415783501720551e-02 0.0000000000000000e+00  1.4238936045414818e-02 2.3122715395711483e-02 0.0000000000000000e+00  1.1923659964964677e-02 2.3954501110174858e-02 0.0000000000000000e+00  9.6474707916562111e-03 2.3940774306177453e-02 0.0000000000000000e+00  7.4767257710482496e-03 2.3127798274662555e-02 0.0000000000000000e+00  5.4687882521313336e-03 2.1576760768288676e-02 0.0000000000000000e+00  3.6716513888827278e-03 1.9362030456001354e-02 0.0000000000000000e+00  2.1257315165693728e-03 1.6569236910195448e-02 0.0000000000000000e+00  8.6354253170623332e-04 1.3293574016833828e-02 0.0000000000000000e+00  -8.8771316854188917e-05 9.6379833726558724e-03 0.0000000000000000e+00  -7.1181419100311411e-04 5.7116840723592062e-03 0.0000000000000000e+00  -9.9177481700778560e-04 1.6285280317479053e-03 0.0000000000000000e+00  -9.2102198192097113e-04 -2.4943065137220913e-03 0.0000000000000000e+00  -4.9751764823805281e-04 -6.5378853292163046e-03 0.0000000000000000e+00  2.7436137275045538e-04 -1.0382871444667357e-02 0.0000000000000000e+00  1.3838934203887368e-03 -1.3911224823427175e-02 0.0000000000000000e+00  2.8128347063108151e-03 -1.7007846216991210e-02 0.0000000000000000e+00  4.5350953683472896e-03 -1.9562600034977375e-02 0.0000000000000000e+00  6.5153809681305144e-03 -2.1472411578567205e-02 0.0000000000000000e+00  8.7087151333510426e-03 -2.2643692721192408e-02 0.0000000000000000e+00  1.1059059788866720e-02 -2.2994843444243664e-02 0.0000000000000000e+00  1.3498861865730342e-02 -2.2458902412685219e-02 0.0000000000000000e+00  1.5947024398105331e-02 -2.0986113665848856e-02 0.0000000000000000e+00  1.8303884409406824e-02 -1.8546529765879987e-02 0.0000000000000000e+00  2.0425485591865401e-02 -1.5133637267059838e-02 0.0000000000000000e+00  2.2003550715769572e-02 -1.0777982677041956e-02 0.0000000000000000e+00  2.2056650821272825e-02 -5.6564832906446710e-03 0.0000000000000000e+00  1.7813174268001788e-02 -1.3599947537562009e-03 0.0000000000000000e+00  2.6532098232408562e-02 7.0914318400838562e-03 0.0000000000000000e+00  2.3124432316742261e-02 2.3483353054101382e-03 0.0000000000000000e+00  2.5896470098424211e-02 1.2942710100691980e-02 0.0000000000000000e+00  2.4267119539815078e-02 1.7932208265412836e-02 0.0000000000000000e+00  2.2192243959668019e-02 2.1891193052335698e-02 0.0000000000000000e+00  1.9861867077441447e-02 2.4797978176913125e-02 0.0000000000000000e+00  1.7396247992926106e-02 2.6662634640330231e-02 0.0000000000000000e+00  1.4893962619847418e-02 2.7515445846807932e-02 0.0000000000000000e+00  1.2438801559348341e-02 2.7404138921470981e-02 0.0000000000000000e+00  1.0103261877563479e-02 2.6392045175410658e-02 0.0000000000000000e+00  7.9478583259789022e-03 2.4556156278642292e-02 0.0000000000000000e+00  6.0237822686464229e-03 2.1985232034520096e-02 0.0000000000000000e+00  4.3721103310269275e-03 1.8777956455991698e-02 0.0000000000000000e+00  3.0266991461642976e-03 1.5041206491514686e-02 0.0000000000000000e+00  2.0132036271177638e-03 1.0888604158192374e-02 0.0000000000000000e+00  1.3516967088113090e-03 6.4390764603224808e-03 0.0000000000000000e+00  1.0555298309233400e-03 1.8158201244223651e-03 0.0000000000000000e+00  1.1332572865683740e-03 -2.8549325545333399e-03 0.0000000000000000e+00  1.5871299764074428e-03 -7.4447492750526591e-03 0.0000000000000000e+00  2.4142006491205243e-03 -1.1824245189145623e-02 0.0000000000000000e+00  3.6044807915923964e-03 -1.5864085731145634e-02 0.0000000000000000e+00  5.1411528096867026e-03 -1.9436518054860873e-02 0.0000000000000000e+00  6.9984083101896286e-03 -2.2416885603615787e-02 0.0000000000000000e+00  9.1411620478231131e-03 -2.4685662135409698e-02 0.0000000000000000e+00  1.1522825706315350e-02 -2.6130651731052147e-02 0.0000000000000000e+00  1.4084803038497427e-02 -2.6649575107328960e-02 0.0000000000000000e+00  1.6754531706673022e-02 -2.6152827141147136e-02 0.0000000000000000e+00  1.9444109358434089e-02 -2.4566403600640076e-02 0.0000000000000000e+00  2.2043195375457406e-02 -2.1835100513906858e-02 0.0000000000000000e+00  2.4388668870553916e-02 -1.7927454595884226e-02 0.0000000000000000e+00  2.6117337365356087e-02 -1.2854177946077324e-02 0.0000000000000000e+00  2.6045301377696294e-02 -6.8122379945959920e-03 0.0000000000000000e+00  2.0859080894696399e-02 -1.8583609434553376e-03 0.0000000000000000e+00  3.1443571949254810e-02 8.2548239308483443e-03 0.0000000000000000e+00  2.7350273246025951e-02 2.8719016185393791e-03 0.0000000000000000e+00  3.0785600417041887e-02 1.5020446429888246e-02 0.0000000000000000e+00  2.9021024163083699e-02 2.0736891688203481e-02 0.0000000000000000e+00  2.6777631930294785e-02 2.5215189503021651e-02 0.0000000000000000e+00  2.4264803096782483e-02 2.8449891106199589e-02 0.0000000000000000e+00  2.1614787186743895e-02 3.0472233073957168e-02 0.0000000000000000e+00  1.8934209793427328e-02 3.1334205848320917e-02 0.0000000000000000e+00  1.6314156199308871e-02 3.1104748171647684e-02 0.0000000000000000e+00  1.3830676910545613e-02 2.9867064432184637e-02 0.0000000000000000e+00  1.1547827674588293e-02 2.7716441838974600e-02 0.0000000000000000e+00  9.5167566472729656e-03 2.4757960821262696e-02 0.0000000000000000e+00  7.7795785107583025e-03 2.1104726206129288e-02 0.0000000000000000e+00  6.3681567311797017e-03 1.6876141035751087e-02 0.0000000000000000e+00  5.3082839577267863e-03 1.2196709358730067e-02 0.0000000000000000e+00  4.6178258458327674e-03 7.1950083139451504e-03 0.0000000000000000e+00  4.3107344051155488e-03 2.0029445448967328e-03 0.0000000000000000e+00  4.3944937530495162e-03 -3.2447177738649021e-03 0.0000000000000000e+00  4.8731671042519433e-03 -8.4109307608253303e-03 0.0000000000000000e+00  5.7443957475255330e-03 -1.3356664882645706e-02 0.0000000000000000e+00  7.0011203384949330e-03 -1.7941686181049427e-02 0.0000000000000000e+00  8.6282206648179843e-03 -2.2025226049415685e-02 0.0000000000000000e+00  1.0602835729855712e-02 -2.5467325095416948e-02 0.0000000000000000e+00  1.2891076051602333e-02 -2.8130349057528141e-02 0.0000000000000000e+00  1.5447469178674157e-02 -2.9881157696205689e-02 0.0000000000000000e+00  1.8212023913517866e-02 -3.0593667292062855e-02 0.0000000000000000e+00  2.1109384370306551e-02 -3.0151898543915853e-02 0.0000000000000000e+00  2.4045472233148971e-02 -2.8453465013426923e-02 0.0000000000000000e+00  2.6899993536869185e-02 -2.5413670603902695e-02 0.0000000000000000e+00  2.9488360683678261e-02 -2.0972222319236868e-02 0.0000000000000000e+00  3.1382360462709862e-02 -1.5117079409851755e-02 0.0000000000000000e+00  3.1150178711403204e-02 -8.0658387355165805e-03 0.0000000000000000e+00  2.4780578440887990e-02 -2.3732302562817472e-03 0.0000000000000000e+00  3.7488968612972753e-02 9.5170822981666507e-03 0.0000000000000000e+00  3.2490238333808097e-02 3.4519833274526757e-03 0.0000000000000000e+00  3.6841429232905398e-02 1.7264831503164761e-02 0.0000000000000000e+00  3.4947179266702516e-02 2.3754740852719440e-02 0.0000000000000000e+00  3.2543168490966647e-02 2.8777017014003887e-02 0.0000000000000000e+00  2.9865049106401642e-02 3.2345672933080452e-02 0.0000000000000000e+00  2.7056844126062421e-02 3.4516878794546214e-02 0.0000000000000000e+00  2.4233436226830357e-02 3.5368436506049927e-02 0.0000000000000000e+00  2.1490121960086424e-02 3.4994279976457682e-02 0.0000000000000000e+00  1.8905842325507356e-02 3.3501051531214673e-02 0.0000000000000000e+00  1.6543720839394711e-02 3.1005067661999706e-02 0.0000000000000000e+00  1.4454291238409508e-02 2.7629949636604843e-02 0.0000000000000000e+00  1.2675574837486634e-02 2.3504432017694567e-02 0.0000000000000000e+00  1.1237675756440729e-02 1.8761073195385870e-02 0.0000000000000000e+00  1.0161516538747096e-02 1.3535038998124593e-02 0.0000000000000000e+00  9.4641673651373985e-03 7.9638330837330813e-03 0.0000000000000000e+00  9.1560343661192135e-03 2.1869255558201930e-03 0.0000000000000000e+00  9.2460385430353734e-03 -3.6538913168620234e-03 0.0000000000000000e+00  9.7373531483626336e-03 -9.4143323490322138e-03 0.0000000000000000e+00  1.0631515013214340e-02 -1.4947220595906632e-02 0.0000000000000000e+00  1.1923537365585702e-02 -2.0102268478752263e-02 0.0000000000000000e+00  1.3603874611806954e-02 -2.4726250170539102e-02 0.0000000000000000e+00  1.5653564184122878e-02 -2.8663429259157453e-02 0.0000000000000000e+00  1.8044123663408337e-02 -3.1756829450488695e-02 0.0000000000000000e+00  2.0733326787282663e-02 -3.3849973082376673e-02 0.0000000000000000e+00  2.3663775975036026e-02 -3.4789569240127396e-02 0.0000000000000000e+00  2.6759623881375802e-02 -3.4428863279497880e-02 0.0000000000000000e+00  2.9923494519001587e-02 -3.2631863683891593e-02 0.0000000000000000e+00  3.3026022246003643e-02 -2.9278660299112292e-02 0.0000000000000000e+00  3.5859879347563239e-02 -2.4274231942597736e-02 0.0000000000000000e+00  3.7920110306876836e-02 -1.7578518106850408e-02 0.0000000000000000e+00  3.7474593702717121e-02 -9.4290669902594056e-03 0.0000000000000000e+00  2.9636548885482953e-02 -2.9292638514765387e-03 0.0000000000000000e+00  4.4798289706820787e-02 1.0873995183678013e-02 0.0000000000000000e+00  3.8644797076037712e-02 4.1021679775644759e-03 0.0000000000000000e+00  4.4203055343442509e-02 1.9663238945642699e-02 0.0000000000000000e+00  4.2195102209466276e-02 2.6961320938218777e-02 0.0000000000000000e+00  3.9653955991675822e-02 3.2537862534631277e-02 0.0000000000000000e+00  3.6847629729140415e-02 3.6431217991595814e-02 0.0000000000000000e+00  3.3932650796064875e-02 3.8728010720119818e-02 0.0000000000000000e+00  3.1030057441677014e-02 3.9537332162956663e-02 0.0000000000000000e+00  2.8237197119629385e-02 3.8983172214412116e-02 0.0000000000000000e+00  2.5631399108257978e-02 3.7199845642793140e-02 0.0000000000000000e+00  2.3272108466419795e-02 3.4328082109740955e-02 0.0000000000000000e+00  2.1203354955128133e-02 3.0512155314191436e-02 0.0000000000000000e+00  1.9457205459714511e-02 2.5897681900094012e-02 0.0000000000000000e+00  1.8055546644125696e-02 2.0630254165039236e-02 0.0000000000000000e+00  1.7014556809257862e-02 1.4855026371051499e-02 0.0000000000000000e+00  1.6344316525968336e-02 8.7165765401580001e-03 0.0000000000000000e+00  1.6054171145827408e-02 2.3599411780295273e-03 0.0000000000000000e+00  1.6149509997969661e-02 -4.0687516822166675e-03 0.0000000000000000e+00  1.6636963272793077e-02 -1.0420493999448636e-02 0.0000000000000000e+00  1.7519087135787766e-02 -1.6542464525066084e-02 0.0000000000000000e+00  1.8798222150540961e-02 -2.2276440609414517e-02 0.0000000000000000e+00  2.0470252758436464e-02 -2.7458052519260479e-02 0.0000000000000000e+00  2.2525728351099061e-02 -3.1916385324887643e-02 0.0000000000000000e+00  2.4944100768404510e-02 -3.5474270540447654e-02 0.0000000000000000e+00  2.7692108711301452e-02 -3.7949853398441424e-02 0.0000000000000000e+00  3.0719011333637410e-02 -3.9158905604105711e-02 0.0000000000000000e+00  3.3953559271596684e-02 -3.8918752208253839e-02 0.0000000000000000e+00  3.7298762651038986e-02 -3.7053186368739881e-02 0.0000000000000000e+00  4.0618915204586561e-02 -3.3399391500640203e-02 0.0000000000000000e+00  4.3682972882019847e-02 -2.7819236303046047e-02 0.0000000000000000e+00  4.5896559033207329e-02 -2.0236570954811160e-02 0.0000000000000000e+00  4.5166573999858663e-02 -1.0906542684430583e-02 0.0000000000000000e+00  3.5525441989527701e-02 -3.5462639567268666e-03 0.0000000000000000e+00  5.3532027900709392e-02 1.2314960299353583e-02 0.0000000000000000e+00  4.5935973672604838e-02 4.8342296826554216e-03 0.0000000000000000e+00  5.3042053074615368e-02 2.2189693911819967e-02 0.0000000000000000e+00  5.0948502514603485e-02 3.0310960527150807e-02 0.0000000000000000e+00  4.8311343309619968e-02 3.6429438220746430e-02 0.0000000000000000e+00  4.5437685732139445e-02 4.0615026970740938e-02 0.0000000000000000e+00  4.2496516454023012e-02 4.2992801582105361e-02 0.0000000000000000e+00  3.9612325227817199e-02 4.3710561084746691e-02 0.0000000000000000e+00  3.6880254203521472e-02 4.2929085871184811e-02 0.0000000000000000e+00  3.4371013454018357e-02 4.0815573230463018e-02 0.0000000000000000e+00  3.2134283541646963e-02 3.7539084687526647e-02 0.0000000000000000e+00  3.0202526791633603e-02 3.3266717508729664e-02 0.0000000000000000e+00  2.8595172337778779e-02 2.8161674237682982e-02 0.0000000000000000e+00  2.7322629242169910e-02 2.2381957089630661e-02 0.0000000000000000e+00  2.6389697999122396e-02 1.6080642454017500e-02 0.0000000000000000e+00  2.5799137097280565e-02 9.4067950489708889e-03 0.0000000000000000e+00  2.5553177330365974e-02 2.5070876450389158e-03 0.0000000000000000e+00  2.5656608760320519e-02 -4.4716353814006366e-03 0.0000000000000000e+00  