<?xml version="1.0"?>
<VTKFile type="UnstructuredGrid"  version="0.1"  >
<UnstructuredGrid>
<Piece  NumberOfPoints="759" NumberOfCells="1408">
<Points>
<DataArray  type="Float64"  NumberOfComponents="3"  format="ascii">0 0.46875 0  0.03125 0.46875 0  0.03125 0.515625 0  0 0.515625 0  0.0625 0.46875 0  0.0625 0.515625 0  0.09375 0.46875 0  0.09375 0.515625 0  0.125 0.46875 0  0.125 0.515625 0  0.15625 0.46875 0  0.15625 0.515625 0  0.1875 0.46875 0  0.1875 0.515625 0  0.21875 0.46875 0  0.21875 0.515625 0  0.25 0.46875 0  0.25 0.515625 0  0.28125 0.46875 0  0.28125 0.515625 0  0.3125 0.46875 0  0.3125 0.515625 0  0.34375 0.46875 0  0.34375 0.515625 0  0.375 0.46875 0  0.375 0.515625 0  0.40625 0.46875 0  0.40625 0.515625 0  0.4375 0.46875 0  0.4375 0.515625 0  0.46875 0.46875 0  0.46875 0.515625 0  0.5 0.46875 0  0.5 0.515625 0  0.53125 0.46875 0  0.53125 0.515625 0  0.5625 0.46875 0  0.5625 0.515625 0  0.59375 0.46875 0  0.59375 0.515625 0  0.625 0.46875 0  0.625 0.515625 0  0.65625 0.46875 0  0.65625 0.515625 0  0.6875 0.46875 0  0.6875 0.515625 0  0.71875 0.46875 0  0.71875 0.515625 0  0.75 0.46875 0  0.75 0.515625 0  0.78125 0.46875 0  0.78125 0.515625 0  0.8125 0.46875 0  0.8125 0.515625 0  0.84375 0.46875 0  0.84375 0.515625 0  0.875 0.46875 0  0.875 0.515625 0  0.90625 0.46875 0  0.90625 0.515625 0  0.9375 0.46875 0  0.9375 0.515625 0  0.96875 0.46875 0  0.96875 0.515625 0  1 0.46875 0  1 0.515625 0  0.03125 0.5625 0  0 0.5625 0  0.0625 0.5625 0  0.09375 0.5625 0  0.125 0.5625 0  0.15625 0.5625 0  0.1875 0.5625 0  0.21875 0.5625 0  0.25 0.5625 0  0.28125 0.5625 0  0.3125 0.5625 0  0.34375 0.5625 0  0.375 0.5625 0  0.40625 0.5625 0  0.4375 0.5625 0  0.46875 0.5625 0  0.5 0.5625 0  0.53125 0.5625 0  0.5625 0.5625 0  0.59375 0.5625 0  0.625 0.5625 0  0.65625 0.5625 0  0.6875 0.5625 0  0.71875 0.5625 0  0.75 0.5625 0  0.78125 0.5625 0  0.8125 0.5625 0  0.84375 0.5625 0  0.875 0.5625 0  0.90625 0.5625 0  0.9375 0.5625 0  0.96875 0.5625 0  1 0.5625 0  0.03125 0.609375 0  0 0.609375 0  0.0625 0.609375 0  0.09375 0.609375 0  0.125 0.609375 0  0.15625 0.609375 0  0.1875 0.609375 0  0.21875 0.609375 0  0.25 0.609375 0  0.28125 0.609375 0  0.3125 0.609375 0  0.34375 0.609375 0  0.375 0.609375 0  0.40625 0.609375 0  0.4375 0.609375 0  0.46875 0.609375 0  0.5 0.609375 0  0.53125 0.609375 0  0.5625 0.609375 0  0.59375 0.609375 0  0.625 0.609375 0  0.65625 0.609375 0  0.6875 0.609375 0  0.71875 0.609375 0  0.75 0.609375 0  0.78125 0.609375 0  0.8125 0.609375 0  0.84375 0.609375 0  0.875 0.609375 0  0.90625 0.609375 0  0.9375 0.609375 0  0.96875 0.609375 0  1 0.609375 0  0.03125 0.65625 0  0 0.65625 0  0.0625 0.65625 0  0.09375 0.65625 0  0.125 0.65625 0  0.15625 0.65625 0  0.1875 0.65625 0  0.21875 0.65625 0  0.25 0.65625 0  0.28125 0.65625 0  0.3125 0.65625 0  0.34375 0.65625 0  0.375 0.65625 0  0.40625 0.65625 0  0.4375 0.65625 0  0.46875 0.65625 0  0.5 0.65625 0  0.53125 0.65625 0  0.5625 0.65625 0  0.59375 0.65625 0  0.625 0.65625 0  0.65625 0.65625 0  0.6875 0.65625 0  0.71875 0.65625 0  0.75 0.65625 0  0.78125 0.65625 0  0.8125 0.65625 0  0.84375 0.65625 0  0.875 0.65625 0  0.90625 0.65625 0  0.9375 0.65625 0  0.96875 0.65625 0  1 0.65625 0  0.03125 0.703125 0  0 0.703125 0  0.0625 0.703125 0  0.09375 0.703125 0  0.125 0.703125 0  0.15625 0.703125 0  0.1875 0.703125 0  0.21875 0.703125 0  0.25 0.703125 0  0.28125 0.703125 0  0.3125 0.703125 0  0.34375 0.703125 0  0.375 0.703125 0  0.40625 0.703125 0  0.4375 0.703125 0  0.46875 0.703125 0  0.5 0.703125 0  0.53125 0.703125 0  0.5625 0.703125 0  0.59375 0.703125 0  0.625 0.703125 0  0.65625 0.703125 0  0.6875 0.703125 0  0.71875 0.703125 0  0.75 0.703125 0  0.78125 0.703125 0  0.8125 0.703125 0  0.84375 0.703125 0  0.875 0.703125 0  0.90625 0.703125 0  0.9375 0.703125 0  0.96875 0.703125 0  1 0.703125 0  0.03125 0.75 0  0 0.75 0  0.0625 0.75 0  0.09375 0.75 0  0.125 0.75 0  0.15625 0.75 0  0.1875 0.75 0  0.21875 0.75 0  0.25 0.75 0  0.28125 0.75 0  0.3125 0.75 0  0.34375 0.75 0  0.375 0.75 0  0.40625 0.75 0  0.4375 0.75 0  0.46875 0.75 0  0.5 0.75 0  0.53125 0.75 0  0.5625 0.75 0  0.59375 0.75 0  0.625 0.75 0  0.65625 0.75 0  0.6875 0.75 0  0.71875 0.75 0  0.75 0.75 0  0.78125 0.75 0  0.8125 0.75 0  0.84375 0.75 0  0.875 0.75 0  0.90625 0.75 0  0.9375 0.75 0  0.96875 0.75 0  1 0.75 0  0.03125 0.796875 0  0 0.796875 0  0.0625 0.796875 0  0.09375 0.796875 0  0.125 0.796875 0  0.15625 0.796875 0  0.1875 0.796875 0  0.21875 0.796875 0  0.25 0.796875 0  0.28125 0.796875 0  0.3125 0.796875 0  0.34375 0.796875 0  0.375 0.796875 0  0.40625 0.796875 0  0.4375 0.796875 0  0.46875 0.796875 0  0.5 0.796875 0  0.53125 0.796875 0  0.5625 0.796875 0  0.59375 0.796875 0  0.625 0.796875 0  0.65625 0.796875 0  0.6875 0.796875 0  0.71875 0.796875 0  0.75 0.796875 0  0.78125 0.796875 0  0.8125 0.796875 0  0.84375 0.796875 0  0.875 0.796875 0  0.90625 0.796875 0  0.9375 0.796875 0  0.96875 0.796875 0  1 0.796875 0  0.03125 0.84375 0  0 0.84375 0  0.0625 0.84375 0  0.09375 0.84375 0  0.125 0.84375 0  0.15625 0.84375 0  0.1875 0.84375 0  0.21875 0.84375 0  0.25 0.84375 0  0.28125 0.84375 0  0.3125 0.84375 0  0.34375 0.84375 0  0.375 0.84375 0  0.40625 0.84375 0  0.4375 0.84375 0  0.46875 0.84375 0  0.5 0.84375 0  0.53125 0.84375 0  0.5625 0.84375 0  0.59375 0.84375 0  0.625 0.84375 0  0.65625 0.84375 0  0.6875 0.84375 0  0.71875 0.84375 0  0.75 0.84375 0  0.78125 0.84375 0  0.8125 0.84375 0  0.84375 0.84375 0  0.875 0.84375 0  0.90625 0.84375 0  0.9375 0.84375 0  0.96875 0.84375 0  1 0.84375 0  0.03125 0.890625 0  0 0.890625 0  0.0625 0.890625 0  0.09375 0.890625 0  0.125 0.890625 0  0.15625 0.890625 0  0.1875 0.890625 0  0.21875 0.890625 0  0.25 0.890625 0  0.28125 0.890625 0  0.3125 0.890625 0  0.34375 0.890625 0  0.375 0.890625 0  0.40625 0.890625 0  0.4375 0.890625 0  0.46875 0.890625 0  0.5 0.890625 0  0.53125 0.890625 0  0.5625 0.890625 0  0.59375 0.890625 0  0.625 0.890625 0  0.65625 0.890625 0  0.6875 0.890625 0  0.71875 0.890625 0  0.75 0.890625 0  0.78125 0.890625 0  0.8125 0.890625 0  0.84375 0.890625 0  0.875 0.890625 0  0.90625 0.890625 0  0.9375 0.890625 0  0.96875 0.890625 0  1 0.890625 0  0.03125 0.9375 0  0 0.9375 0  0.0625 0.9375 0  0.09375 0.9375 0  0.125 0.9375 0  0.15625 0.9375 0  0.1875 0.9375 0  0.21875 0.9375 0  0.25 0.9375 0  0.28125 0.9375 0  0.3125 0.9375 0  0.34375 0.9375 0  0.375 0.9375 0  0.40625 0.9375 0  0.4375 0.9375 0  0.46875 0.9375 0  0.5 0.9375 0  0.53125 0.9375 0  0.5625 0.9375 0  0.59375 0.9375 0  0.625 0.9375 0  0.65625 0.9375 0  0.6875 0.9375 0  0.71875 0.9375 0  0.75 0.9375 0  0.78125 0.9375 0  0.8125 0.9375 0  0.84375 0.9375 0  0.875 0.9375 0  0.90625 0.9375 0  0.9375 0.9375 0  0.96875 0.9375 0  1 0.9375 0  0.03125 0.984375 0  0 0.984375 0  0.0625 0.984375 0  0.09375 0.984375 0  0.125 0.984375 0  0.15625 0.984375 0  0.1875 0.984375 0  0.21875 0.984375 0  0.25 0.984375 0  0.28125 0.984375 0  0.3125 0.984375 0  0.34375 0.984375 0  0.375 0.984375 0  0.40625 0.984375 0  0.4375 0.984375 0  0.46875 0.984375 0  0.5 0.984375 0  0.53125 0.984375 0  0.5625 0.984375 0  0.59375 0.984375 0  0.625 0.984375 0  0.65625 0.984375 0  0.6875 0.984375 0  0.71875 0.984375 0  0.75 0.984375 0  0.78125 0.984375 0  0.8125 0.984375 0  0.84375 0.984375 0  0.875 0.984375 0  0.90625 0.984375 0  0.9375 0.984375 0  0.96875 0.984375 0  1 0.984375 0  0.03125 1.03125 0  0 1.03125 0  0.0625 1.03125 0  0.09375 1.03125 0  0.125 1.03125 0  0.15625 1.03125 0  0.1875 1.03125 0  0.21875 1.03125 0  0.25 1.03125 0  0.28125 1.03125 0  0.3125 1.03125 0  0.34375 1.03125 0  0.375 1.03125 0  0.40625 1.03125 0  0.4375 1.03125 0  0.46875 1.03125 0  0.5 1.03125 0  0.53125 1.03125 0  0.5625 1.03125 0  0.59375 1.03125 0  0.625 1.03125 0  0.65625 1.03125 0  0.6875 1.03125 0  0.71875 1.03125 0  0.75 1.03125 0  0.78125 1.03125 0  0.8125 1.03125 0  0.84375 1.03125 0  0.875 1.03125 0  0.90625 1.03125 0  0.9375 1.03125 0  0.96875 1.03125 0  1 1.03125 0  0.03125 1.078125 0  0 1.078125 0  0.0625 1.078125 0  0.09375 1.078125 0  0.125 1.078125 0  0.15625 1.078125 0  0.1875 1.078125 0  0.21875 1.078125 0  0.25 1.078125 0  0.28125 1.078125 0  0.3125 1.078125 0  0.34375 1.078125 0  0.375 1.078125 0  0.40625 1.078125 0  0.4375 1.078125 0  0.46875 1.078125 0  0.5 1.078125 0  0.53125 1.078125 0  0.5625 1.078125 0  0.59375 1.078125 0  0.625 1.078125 0  0.65625 1.078125 0  0.6875 1.078125 0  0.71875 1.078125 0  0.75 1.078125 0  0.78125 1.078125 0  0.8125 1.078125 0  0.84375 1.078125 0  0.875 1.078125 0  0.90625 1.078125 0  0.9375 1.078125 0  0.96875 1.078125 0  1 1.078125 0  0.03125 1.125 0  0 1.125 0  0.0625 1.125 0  0.09375 1.125 0  0.125 1.125 0  0.15625 1.125 0  0.1875 1.125 0  0.21875 1.125 0  0.25 1.125 0  0.28125 1.125 0  0.3125 1.125 0  0.34375 1.125 0  0.375 1.125 0  0.40625 1.125 0  0.4375 1.125 0  0.46875 1.125 0  0.5 1.125 0  0.53125 1.125 0  0.5625 1.125 0  0.59375 1.125 0  0.625 1.125 0  0.65625 1.125 0  0.6875 1.125 0  0.71875 1.125 0  0.75 1.125 0  0.78125 1.125 0  0.8125 1.125 0  0.84375 1.125 0  0.875 1.125 0  0.90625 1.125 0  0.9375 1.125 0  0.96875 1.125 0  1 1.125 0  0.03125 1.171875 0  0 1.171875 0  0.0625 1.171875 0  0.09375 1.171875 0  0.125 1.171875 0  0.15625 1.171875 0  0.1875 1.171875 0  0.21875 1.171875 0  0.25 1.171875 0  0.28125 1.171875 0  0.3125 1.171875 0  0.34375 1.171875 0  0.375 1.171875 0  0.40625 1.171875 0  0.4375 1.171875 0  0.46875 1.171875 0  0.5 1.171875 0  0.53125 1.171875 0  0.5625 1.171875 0  0.59375 1.171875 0  0.625 1.171875 0  0.65625 1.171875 0  0.6875 1.171875 0  0.71875 1.171875 0  0.75 1.171875 0  0.78125 1.171875 0  0.8125 1.171875 0  0.84375 1.171875 0  0.875 1.171875 0  0.90625 1.171875 0  0.9375 1.171875 0  0.96875 1.171875 0  1 1.171875 0  0.03125 1.21875 0  0 1.21875 0  0.0625 1.21875 0  0.09375 1.21875 0  0.125 1.21875 0  0.15625 1.21875 0  0.1875 1.21875 0  0.21875 1.21875 0  0.25 1.21875 0  0.28125 1.21875 0  0.3125 1.21875 0  0.34375 1.21875 0  0.375 1.21875 0  0.40625 1.21875 0  0.4375 1.21875 0  0.46875 1.21875 0  0.5 1.21875 0  0.53125 1.21875 0  0.5
[...]
<PointData  Vectors="u"> 
<DataArray  type="Float64"  Name="u"  NumberOfComponents="3" format="ascii">1.4116404160201827e-02 7.1452967451966071e-04 0.0000000000000000e+00  1.6277598157906265e-02 3.9893945229239978e-03 0.0000000000000000e+00  1.7909147989085231e-02 4.2714870668102718e-03 0.0000000000000000e+00  1.5337469651983029e-02 9.3240342617499151e-04 0.0000000000000000e+00  1.5726482321203442e-02 7.2650154119012983e-03 0.0000000000000000e+00  1.7523752417901776e-02 7.8605011409104975e-03 0.0000000000000000e+00  1.4635503047715640e-02 1.0194593107987301e-02 0.0000000000000000e+00  1.6218958182788939e-02 1.1032491918499844e-02 0.0000000000000000e+00  1.3206367718009730e-02 1.2658695042424025e-02 0.0000000000000000e+00  1.4558910416817512e-02 1.3675994497547505e-02 0.0000000000000000e+00  1.1547070522895053e-02 1.4591620146399626e-02 0.0000000000000000e+00  1.2696882729726694e-02 1.5729452200571106e-02 0.0000000000000000e+00  9.7473001124004539e-03 1.5949092026452349e-02 0.0000000000000000e+00  1.0721976720757651e-02 1.7154512909902428e-02 0.0000000000000000e+00  7.8853463863607937e-03 1.6707067418312252e-02 0.0000000000000000e+00  8.7091892904753478e-03 1.7933212198610299e-02 0.0000000000000000e+00  6.0301738471694290e-03 1.6861449769578665e-02 0.0000000000000000e+00  6.7244938295012600e-03 1.8067037249189274e-02 0.0000000000000000e+00  4.2423911076198452e-03 1.6426872613169677e-02 0.0000000000000000e+00  4.8257613609848753e-03 1.7575797862813217e-02 0.0000000000000000e+00  2.5748503332483101e-03 1.5435074317470730e-02 0.0000000000000000e+00  3.0635742584107888e-03 1.6495991396829172e-02 0.0000000000000000e+00  1.0731531821583204e-03 1.3932947969123899e-02 0.0000000000000000e+00  1.4814306813777432e-03 1.4878996039048327e-02 0.0000000000000000e+00  -2.2398247559003156e-04 1.1980563567220411e-02 0.0000000000000000e+00  1.1630279778617592e-04 1.2789067402502503e-02 0.0000000000000000e+00  -1.2843364432874567e-03 9.6490894629689752e-03 0.0000000000000000e+00  -1.0012043114425316e-03 1.0301390493668051e-02 0.0000000000000000e+00  -2.0819639106391731e-03 7.0188021934903090e-03 0.0000000000000000e+00  -1.8465180232714446e-03 7.5000716249737339e-03 0.0000000000000000e+00  -2.5969907163291453e-03 4.1770623268064209e-03 0.0000000000000000e+00  -2.4010604917154683e-03 4.4762412533410761e-03 0.0000000000000000e+00  -2.8154918622997787e-03 1.2163748029150585e-03 0.0000000000000000e+00  -2.6520347949633184e-03 1.3261168378604733e-03 0.0000000000000000e+00  -2.7294280145641462e-03 -1.7675849733350306e-03 0.0000000000000000e+00  -2.5925283472846236e-03 -1.8508504672532029e-03 0.0000000000000000e+00  -2.3367052260312333e-03 -4.6779183098917959e-03 0.0000000000000000e+00  -2.2215442858088382e-03 -4.9539008412442641e-03 0.0000000000000000e+00  -1.6412665968468503e-03 -7.4185313922986180e-03 0.0000000000000000e+00  -1.5442391313093533e-03 -7.8828870462830831e-03 0.0000000000000000e+00  -6.5326483995705386e-04 -9.8962057136097060e-03 0.0000000000000000e+00  -5.7210940468382888e-04 -1.0540320813236330e-02 0.0000000000000000e+00  6.1070613401248506e-04 -1.2022803763048066e-02 0.0000000000000000e+00  6.7657752570166659e-04 -1.2833490508960847e-02 0.0000000000000000e+00  2.1273103563334951e-03 -1.3717561170481479e-02 0.0000000000000000e+00  2.1764357812632260e-03 -1.4676748447033559e-02 0.0000000000000000e+00  3.8662198548234362e-03 -1.4909540087703892e-02 0.0000000000000000e+00  3.8944693171537028e-03 -1.5993900541564535e-02 0.0000000000000000e+00  5.7898216600484591e-03 -1.5540157831339949e-02 0.0000000000000000e+00  5.7897035873986516e-03 -1.6720755822039014e-02 0.0000000000000000e+00  7.8529921562877289e-03 -1.5565824407137278e-02 0.0000000000000000e+00  7.8126754619666158e-03 -1.6807721749696886e-02 0.0000000000000000e+00  1.0002713133484324e-02 -1.4960575427790106e-02 0.0000000000000000e+00  9.9050446571408834e-03 -1.6222447369984936e-02 0.0000000000000000e+00  1.2176839697104168e-02 -1.3718714030257678e-02 0.0000000000000000e+00  1.1998426177428148e-02 -1.4952365591880722e-02 0.0000000000000000e+00  1.4298487707625537e-02 -1.1857519240101002e-02 0.0000000000000000e+00  1.4010394310494495e-02 -1.3007191373987816e-02 0.0000000000000000e+00  1.6249773681614392e-02 -9.4210580927177739e-03 0.0000000000000000e+00  1.5825467806066976e-02 -1.0421951488154144e-02 0.0000000000000000e+00  1.7752577267844075e-02 -6.4917840438643995e-03 0.0000000000000000e+00  1.7208733025220982e-02 -7.2655779797773917e-03 0.0000000000000000e+00  1.7927575619238082e-02 -3.2623601581154714e-03 0.0000000000000000e+00  1.7459892542462097e-02 -3.6937584930342477e-03 0.0000000000000000e+00  1.5189944850328509e-02 -3.0009061570144261e-04 0.0000000000000000e+00  1.4590422455704938e-02 -4.1159117364219974e-04 0.0000000000000000e+00  1.9809739163753760e-02 5.0661763988810084e-03 0.0000000000000000e+00  1.7169909593767883e-02 1.3983234783681233e-03 0.0000000000000000e+00  1.9303858646391597e-02 9.3118672264683837e-03 0.0000000000000000e+00  1.7925726803673121e-02 1.3011097226626965e-02 0.0000000000000000e+00  1.6157626784798922e-02 1.6036964033076032e-02 0.0000000000000000e+00  1.4168988813586645e-02 1.8340955006636964e-02 0.0000000000000000e+00  1.2062186586305057e-02 1.9898668547183758e-02 0.0000000000000000e+00  9.9185059022141881e-03 2.0705415854081602e-02 0.0000000000000000e+00  7.8080868098216209e-03 2.0775297031233864e-02 0.0000000000000000e+00  5.7924388247414388e-03 2.0139899340163737e-02 0.0000000000000000e+00  3.9246097693957155e-03 1.8846784508391296e-02 0.0000000000000000e+00  2.2501776523681095e-03 1.6957629090886741e-02 0.0000000000000000e+00  8.0730923019463698e-04 1.4546416851843384e-02 0.0000000000000000e+00  -3.7234717655975551e-04 1.1697463263142383e-02 0.0000000000000000e+00  -1.2637309209260143e-03 8.5036489245418605e-03 0.0000000000000000e+00  -1.8477139050937846e-03 5.0645384779297994e-03 0.0000000000000000e+00  -2.1112135751759475e-03 1.4847191968656163e-03 0.0000000000000000e+00  -2.0468978569213314e-03 -2.1279888341629834e-03 0.0000000000000000e+00  -1.6535177820326897e-03 -5.6641776737749883e-03 0.0000000000000000e+00  -9.3588866641180037e-04 -9.0146817113263573e-03 0.0000000000000000e+00  9.4558614358088665e-05 -1.2072376456059795e-02 0.0000000000000000e+00  1.4194910378718265e-03 -1.4734213901005874e-02 0.0000000000000000e+00  3.0128870019890766e-03 -1.6903322966573008e-02 0.0000000000000000e+00  4.8406514176117270e-03 -1.8491361914416336e-02 0.0000000000000000e+00  6.8597418507485818e-03 -1.9420948916829946e-02 0.0000000000000000e+00  9.0177589201120758e-03 -1.9628266109051631e-02 0.0000000000000000e+00  1.1252072207613605e-02 -1.9065617049029558e-02 0.0000000000000000e+00  1.3488744404198493e-02 -1.7703942830145938e-02 0.0000000000000000e+00  1.5637769053660131e-02 -1.5535159437575831e-02 0.0000000000000000e+00  1.7572050710119469e-02 -1.2575110074314408e-02 0.0000000000000000e+00  1.9028165180507834e-02 -8.8733644264153300e-03 0.0000000000000000e+00  1.9188201593340126e-02 -4.5895426675424573e-03 0.0000000000000000e+00  1.5681246249858186e-02 -8.5876883205495043e-04 0.0000000000000000e+00  2.2684896919540683e-02 6.0281194283864515e-03 0.0000000000000000e+00  1.9756189541265845e-02 1.8639415554275241e-03 0.0000000000000000e+00  2.2100839392284331e-02 1.1038767476630039e-02 0.0000000000000000e+00  2.0603355494678590e-02 1.5355441771235942e-02 0.0000000000000000e+00  1.8691581865621476e-02 1.8829867480536652e-02 0.0000000000000000e+00  1.6542530151683589e-02 2.1425981157205554e-02 0.0000000000000000e+00  1.4266165859907849e-02 2.3135525719734640e-02 0.0000000000000000e+00  1.1951687007723189e-02 2.3970056658206163e-02 0.0000000000000000e+00  9.6763502433473356e-03 2.3959170381745578e-02 0.0000000000000000e+00  7.5064907907976975e-03 2.3149087225916066e-02 0.0000000000000000e+00  5.4994528929193341e-03 2.1600946988115426e-02 0.0000000000000000e+00  3.7032128522801462e-03 1.9389066261732570e-02 0.0000000000000000e+00  2.1581720401335496e-03 1.6599019423180043e-02 0.0000000000000000e+00  8.9683097087413601e-04 1.3325943149497917e-02 0.0000000000000000e+00  -5.4678036233428117e-05 9.6727209844923775e-03 0.0000000000000000e+00  -6.7696965166776015e-04 5.7485143555911621e-03 0.0000000000000000e+00  -9.5624158054418015e-04 1.6671191451440486e-03 0.0000000000000000e+00  -8.8487000025235180e-04 -2.4543395381097241e-03 0.0000000000000000e+00  -4.6082248100276919e-04 -6.4969764215691908e-03 0.0000000000000000e+00  3.1152056742704017e-04 -1.0341498092047255e-02 0.0000000000000000e+00  1.4214361490224943e-03 -1.3869901480446438e-02 0.0000000000000000e+00  2.8506816391978096e-03 -1.6967116588955864e-02 0.0000000000000000e+00  4.5731711303002558e-03 -1.9523028333390487e-02 0.0000000000000000e+00  6.5536172710200123e-03 -2.1434572881006902e-02 0.0000000000000000e+00  8.7470541979181617e-03 -2.2608162595978695e-02 0.0000000000000000e+00  1.1097458089652425e-02 -2.2962187031067574e-02 0.0000000000000000e+00  1.3537294208191206e-02 -2.2429663218805063e-02 0.0000000000000000e+00  1.5985487392754363e-02 -2.0960802320599645e-02 0.0000000000000000e+00  1.8342395246410785e-02 -1.8525612971337434e-02 0.0000000000000000e+00  2.0464051937753417e-02 -1.5117526961040018e-02 0.0000000000000000e+00  2.2041981013725016e-02 -1.0767024121403469e-02 0.0000000000000000e+00  2.2093537773866100e-02 -5.6509298639229122e-03 0.0000000000000000e+00  1.7841474156657999e-02 -1.3598293375037785e-03 0.0000000000000000e+00  2.6554411785014425e-02 7.0926753536152019e-03 0.0000000000000000e+00  2.3140648366647826e-02 2.3477421630459993e-03 0.0000000000000000e+00  2.5920208964901253e-02 1.2945531514380798e-02 0.0000000000000000e+00  2.4291378702368190e-02 1.7936848586981986e-02 0.0000000000000000e+00  2.2217004589150730e-02 2.1897905723504855e-02 0.0000000000000000e+00  1.9887248816751271e-02 2.4806993641532733e-02 0.0000000000000000e+00  1.7422365776657685e-02 2.6674153017093867e-02 0.0000000000000000e+00  1.4920905219701580e-02 2.7529631654229125e-02 0.0000000000000000e+00  1.2466631598343211e-02 2.7421115929854974e-02 0.0000000000000000e+00  1.0132018921756532e-02 2.6411891485221956e-02 0.0000000000000000e+00  7.9775617104378867e-03 2.4578899872836429e-02 0.0000000000000000e+00  6.0544333746809093e-03 2.2010847007950796e-02 0.0000000000000000e+00  4.4036944179042699e-03 1.8806360091734583e-02 0.0000000000000000e+00  3.0591869599146393e-03 1.5072257301654984e-02 0.0000000000000000e+00  2.0465527962334976e-03 1.0922100993138185e-02 0.0000000000000000e+00  1.3858531856200116e-03 6.4747587475844836e-03 0.0000000000000000e+00  1.0904293730380247e-03 1.8533692950926076e-03 0.0000000000000000e+00  1.1688271147795525e-03 -2.8158904317922145e-03 0.0000000000000000e+00  1.6232905607481863e-03 -7.4046396263089667e-03 0.0000000000000000e+00  2.4508678287750857e-03 -1.1783539857857321e-02 0.0000000000000000e+00  3.6415681403946568e-03 -1.5823296698119927e-02 0.0000000000000000e+00  5.1785743028174907e-03 -1.9396190022821780e-02 0.0000000000000000e+00  7.0360812724396772e-03 -2.2377587501597761e-02 0.0000000000000000e+00  9.1790105384397299e-03 -2.4647977653303864e-02 0.0000000000000000e+00  1.1560784143425795e-02 -2.6095169022171977e-02 0.0000000000000000e+00  1.4122820161134714e-02 -2.6616875822273636e-02 0.0000000000000000e+00  1.6792574861422403e-02 -2.6123474998007455e-02 0.0000000000000000e+00  1.9482168235793913e-02 -2.4540932720395640e-02 0.0000000000000000e+00  2.2081281179926110e-02 -2.1814003722363560e-02 0.0000000000000000e+00  2.4426785571943530e-02 -1.7911171697371407e-02 0.0000000000000000e+00  2.6155297314233574e-02 -1.2843082564469211e-02 0.0000000000000000e+00  2.6081730065120552e-02 -6.8066084490296290e-03 0.0000000000000000e+00  2.0887047795497160e-02 -1.8581570320500974e-03 0.0000000000000000e+00  3.1464582308588798e-02 8.2557494757863181e-03 0.0000000000000000e+00  2.7365438706476099e-02 2.8712405236784718e-03 0.0000000000000000e+00  3.0807992459809634e-02 1.5022667121899164e-02 0.0000000000000000e+00  2.9043924894856125e-02 2.0740689824815819e-02 0.0000000000000000e+00  2.6801030481618988e-02 2.5220862976244603e-02 0.0000000000000000e+00  2.4288825340411140e-02 2.8457710628959607e-02 0.0000000000000000e+00  2.1639555333418665e-02 3.0482434703419877e-02 0.0000000000000000e+00  1.8959820435487284e-02 3.1346986316103789e-02 0.0000000000000000e+00  1.6340679831381412e-02 3.1120260433860174e-02 0.0000000000000000e+00  1.3858160569397185e-02 2.9885413343775515e-02 0.0000000000000000e+00  1.1576297561138709e-02 2.7737680161651641e-02 0.0000000000000000e+00  9.5462201699550268e-03 2.4782085764816858e-02 0.0000000000000000e+00  7.8100260411975569e-03 2.1131676675663319e-02 0.0000000000000000e+00  6.3995630252551110e-03 1.6905795719177101e-02 0.0000000000000000e+00  5.3406095223087159e-03 1.2228885766973093e-02 0.0000000000000000e+00  4.6510182147729111e-03 7.2294628590606827e-03 0.0000000000000000e+00  4.3447296375397652e-03 2.0393737144607060e-03 0.0000000000000000e+00  4.4292179788143777e-03 -3.2066750873636042e-03 0.0000000000000000e+00  4.9085383795653640e-03 -8.3716897550593847e-03 0.0000000000000000e+00  5.7803261396251375e-03 -1.3316690142988257e-02 0.0000000000000000e+00  7.0375184256294071e-03 -1.7901485795268342e-02 0.0000000000000000e+00  8.6649942968925111e-03 -2.1985344541451599e-02 0.0000000000000000e+00  1.0639895187711376e-02 -2.5428335250638336e-02 0.0000000000000000e+00  1.2928337595898622e-02 -2.8092842690359675e-02 0.0000000000000000e+00  1.5484858985874496e-02 -2.9845735474935953e-02 0.0000000000000000e+00  1.8249482298350640e-02 -3.0560927762932875e-02 0.0000000000000000e+00  2.1146870397945147e-02 -3.0122426536080479e-02 0.0000000000000000e+00  2.4082967808215051e-02 -2.8427819632100802e-02 0.0000000000000000e+00  2.6937503172937544e-02 -2.5392373024394482e-02 0.0000000000000000e+00  2.9525884292462817e-02 -2.0955743393073704e-02 0.0000000000000000e+00  3.1419715033766893e-02 -1.5105825441580375e-02 0.0000000000000000e+00  3.1186028403585891e-02 -8.0601177370090652e-03 0.0000000000000000e+00  2.4808132020989710e-02 -2.3729759523452728e-03 0.0000000000000000e+00  3.7508516084720334e-02 9.5177008480264603e-03 0.0000000000000000e+00  3.2504242580480278e-02 3.4512677680583778e-03 0.0000000000000000e+00  3.6862300599214838e-02 1.7266467962663724e-02 0.0000000000000000e+00  3.4968540391183758e-02 2.3757713978203709e-02 0.0000000000000000e+00  3.2565014866555254e-02 2.8781664051409219e-02 0.0000000000000000e+00  2.9887510490559641e-02 3.2352301439673409e-02 0.0000000000000000e+00  2.7080048082824951e-02 3.4525758653716397e-02 0.0000000000000000e+00  2.4257486198712111e-02 3.5379795555006525e-02 0.0000000000000000e+00  2.1515096180008304e-02 3.5008299973513991e-02 0.0000000000000000e+00  1.8931795993383703e-02 3.3517864240250397e-02 0.0000000000000000e+00  1.6570688290830169e-02 3.1024751190771416e-02 0.0000000000000000e+00  1.4482287727284448e-02 2.7652525211917876e-02 0.0000000000000000e+00  1.2704597961440571e-02 2.3529861352874451e-02 0.0000000000000000e+00  1.1267706730505813e-02 1.8789256589116669e-02 0.0000000000000000e+00  1.0192521262354407e-02 1.3565814273275193e-02 0.0000000000000000e+00  9.4960976426540274e-03 7.9969754696622031e-03 0.0000000000000000e+00  9.1888291378003292e-03 2.2221485769613196e-03 0.0000000000000000e+00  9.2796254310624771e-03 -3.6169338738791744e-03 0.0000000000000000e+00  9.7716501054883522e-03 -9.3760433447976597e-03 0.0000000000000000e+00  1.0666432485959377e-02 -1.4908055291138143e-02 0.0000000000000000e+00  1.1958980705832676e-02 -2.0062729108917893e-02 0.0000000000000000e+00  1.3639746974886466e-02 -2.4686879337926546e-02 0.0000000000000000e+00  1.5689769769230640e-02 -2.8624802147880577e-02 0.0000000000000000e+00  1.8080571505011234e-02 -3.1719544927229580e-02 0.0000000000000000e+00  2.0769934889217832e-02 -3.3814643732670666e-02 0.0000000000000000e+00  2.3700475879670561e-02 -3.4756810464565698e-02 0.0000000000000000e+00  2.6796365616691950e-02 -3.4399281608502877e-02 0.0000000000000000e+00  2.9960251128030326e-02 -3.2606044509937919e-02 0.0000000000000000e+00  3.3062790180188234e-02 -2.9257155232772294e-02 0.0000000000000000e+00  3.5896652965699244e-02 -2.4257545788963025e-02 0.0000000000000000e+00  3.7956710470234370e-02 -1.7567093512647784e-02 0.0000000000000000e+00  3.7509727882927169e-02 -9.4232455353324245e-03 0.0000000000000000e+00  2.9663593437584630e-02 -2.9289519441542508e-03 0.0000000000000000e+00  4.4816243089447878e-02 1.0874323378613980e-02 0.0000000000000000e+00  3.8657551855156250e-02 4.1014100723701192e-03 0.0000000000000000e+00  4.4222260672271439e-02 1.9664318084064145e-02 0.0000000000000000e+00  4.2214769138956068e-02 2.6963500893390096e-02 0.0000000000000000e+00  3.9674084562312160e-02 3.2541514413389122e-02 0.0000000000000000e+00  3.6868350902496884e-02 3.6436681754381445e-02 0.0000000000000000e+00  3.3954095375881059e-02 3.8735586770332238e-02 0.0000000000000000e+00  3.1052334397634079e-02 3.9547277120171503e-02 0.0000000000000000e+00  2.8260391972706602e-02 3.8995695141909779e-02 0.0000000000000000e+00  2.5655575527986845e-02 3.7215104400078032e-02 0.0000000000000000e+00  2.3297309965649916e-02 3.4346179913558920e-02 0.0000000000000000e+00  2.1229606225416982e-02 3.0533137666883283e-02 0.0000000000000000e+00  1.9484513460174966e-02 2.5921534017239994e-02 0.0000000000000000e+00  1.8083901492658282e-02 2.0656899037127661e-02 0.0000000000000000e+00  1.7043932641975307e-02 1.4884323570671883e-02 0.0000000000000000e+00  1.6374672331635632e-02 8.7483218600630797e-03 0.0000000000000000e+00  1.6085451888100670e-02 2.3938672017856768e-03 0.0000000000000000e+00  1.6181647802380746e-02 -4.0329740304721785e-03 0.0000000000000000e+00  1.6669879041132180e-02 -1.0383252837427618e-02 0.0000000000000000e+00  1.7552692411482936e-02 -1.6504203298697482e-02 0.0000000000000000e+00  1.8832421589739634e-02 -2.2237653218969269e-02 0.0000000000000000e+00  2.0504946881778483e-02 -2.7419277264219926e-02 0.0000000000000000e+00  2.2560816918339447e-02 -3.1878197643667103e-02 0.0000000000000000e+00  2.4979486646480618e-02 -3.5437274545756833e-02 0.0000000000000000e+00  2.7727702265487909e-02 -3.7914672258550955e-02 0.0000000000000000e+00  3.0754735256450720e-02 -3.9126170824337857e-02 0.0000000000000000e+00  3.3989353901474784e-02 -3.8889091962426486e-02 0.0000000000000000e+00  3.7334590947267932e-02 -3.7027213044891177e-02 0.0000000000000000e+00  4.0654763835908124e-02 -3.3377688666887874e-02 0.0000000000000000e+00  4.3718828604655424e-02 -2.7802345044579669e-02 0.0000000000000000e+00  4.5932245170759382e-02 -2.0224973296700484e-02 0.0000000000000000e+00  4.5200845615301834e-02 -1.0900617147635547e-02 0.0000000000000000e+00  3.5551872602185015e-02 -3.5458896981738694e-03 0.0000000000000000e+00  5.3548281840830728e-02 1.2315021378217481e-02 0.0000000000000000e+00  4.5947411327048868e-02 4.8334415997194216e-03 0.0000000000000000e+00  5.3059473062103756e-02 2.2190254841099002e-02 0.0000000000000000e+00  5.0966345524110210e-02 3.0312396250520152e-02 0.0000000000000000e+00  4.8329611806108751e-02 3.6432147486772461e-02 0.0000000000000000e+00  4.5456509058684307e-02 4.0619376763383779e-02 0.0000000000000000e+00  4.2516026359804268e-02 4.2999118431693635e-02 0.0000000000000000e+00  3.9632634659823550e-02 4.3719126934193969e-02 0.0000000000000000e+00  3.6901455213255059e-02 4.2940134486776034e-02 0.0000000000000000e+00  3.4393178206222480e-02 4.0829286726202126e-02 0.0000000000000000e+00  3.2157465456214715e-02 3.7555590235615631e-02 0.0000000000000000e+00  3.0226761394129078e-02 3.3286084344006213e-02 0.0000000000000000e+00  2.8620477894258874e-02 2.8183911102750786e-02 0.0000000000000000e+00  2.7349007250611415e-02 2.2407010210642321e-02 0.0000000000000000e+00  2.6417133634497571e-02 1.6108394180003455e-02 0.0000000000000000e+00  2.5827599734556842e-02 9.4370632252930801e-03 0.0000000000000000e+00  2.5582621240841326e-02 2.5396258101595174e-03 0.0000000000000000e+00  2.5686974076079807e-02 -4.4371368856732018e-03 0.0000000000000000e+00  