<?xml version="1.0"?>
<VTKFile type="UnstructuredGrid"  version="0.1"  >
<UnstructuredGrid>
<Piece  NumberOfPoints="759" NumberOfCells="1408">
<Points>
<DataArray  type="Float64"  NumberOfComponents="3"  format="ascii">0 0.46875 0  0.03125 0.46875 0  0.03125 0.515625 0  0 0.515625 0  0.0625 0.46875 0  0.0625 0.515625 0  0.09375 0.46875 0  0.09375 0.515625 0  0.125 0.46875 0  0.125 0.515625 0  0.15625 0.46875 0  0.15625 0.515625 0  0.1875 0.46875 0  0.1875 0.515625 0  0.21875 0.46875 0  0.21875 0.515625 0  0.25 0.46875 0  0.25 0.515625 0  0.28125 0.46875 0  0.28125 0.515625 0  0.3125 0.46875 0  0.3125 0.515625 0  0.34375 0.46875 0  0.34375 0.515625 0  0.375 0.46875 0  0.375 0.515625 0  0.40625 0.46875 0  0.40625 0.515625 0  0.4375 0.46875 0  0.4375 0.515625 0  0.46875 0.46875 0  0.46875 0.515625 0  0.5 0.46875 0  0.5 0.515625 0  0.53125 0.46875 0  0.53125 0.515625 0  0.5625 0.46875 0  0.5625 0.515625 0  0.59375 0.46875 0  0.59375 0.515625 0  0.625 0.46875 0  0.625 0.515625 0  0.65625 0.46875 0  0.65625 0.515625 0  0.6875 0.46875 0  0.6875 0.515625 0  0.71875 0.46875 0  0.71875 0.515625 0  0.75 0.46875 0  0.75 0.515625 0  0.78125 0.46875 0  0.78125 0.515625 0  0.8125 0.46875 0  0.8125 0.515625 0  0.84375 0.46875 0  0.84375 0.515625 0  0.875 0.46875 0  0.875 0.515625 0  0.90625 0.46875 0  0.90625 0.515625 0  0.9375 0.46875 0  0.9375 0.515625 0  0.96875 0.46875 0  0.96875 0.515625 0  1 0.46875 0  1 0.515625 0  0.03125 0.5625 0  0 0.5625 0  0.0625 0.5625 0  0.09375 0.5625 0  0.125 0.5625 0  0.15625 0.5625 0  0.1875 0.5625 0  0.21875 0.5625 0  0.25 0.5625 0  0.28125 0.5625 0  0.3125 0.5625 0  0.34375 0.5625 0  0.375 0.5625 0  0.40625 0.5625 0  0.4375 0.5625 0  0.46875 0.5625 0  0.5 0.5625 0  0.53125 0.5625 0  0.5625 0.5625 0  0.59375 0.5625 0  0.625 0.5625 0  0.65625 0.5625 0  0.6875 0.5625 0  0.71875 0.5625 0  0.75 0.5625 0  0.78125 0.5625 0  0.8125 0.5625 0  0.84375 0.5625 0  0.875 0.5625 0  0.90625 0.5625 0  0.9375 0.5625 0  0.96875 0.5625 0  1 0.5625 0  0.03125 0.609375 0  0 0.609375 0  0.0625 0.609375 0  0.09375 0.609375 0  0.125 0.609375 0  0.15625 0.609375 0  0.1875 0.609375 0  0.21875 0.609375 0  0.25 0.609375 0  0.28125 0.609375 0  0.3125 0.609375 0  0.34375 0.609375 0  0.375 0.609375 0  0.40625 0.609375 0  0.4375 0.609375 0  0.46875 0.609375 0  0.5 0.609375 0  0.53125 0.609375 0  0.5625 0.609375 0  0.59375 0.609375 0  0.625 0.609375 0  0.65625 0.609375 0  0.6875 0.609375 0  0.71875 0.609375 0  0.75 0.609375 0  0.78125 0.609375 0  0.8125 0.609375 0  0.84375 0.609375 0  0.875 0.609375 0  0.90625 0.609375 0  0.9375 0.609375 0  0.96875 0.609375 0  1 0.609375 0  0.03125 0.65625 0  0 0.65625 0  0.0625 0.65625 0  0.09375 0.65625 0  0.125 0.65625 0  0.15625 0.65625 0  0.1875 0.65625 0  0.21875 0.65625 0  0.25 0.65625 0  0.28125 0.65625 0  0.3125 0.65625 0  0.34375 0.65625 0  0.375 0.65625 0  0.40625 0.65625 0  0.4375 0.65625 0  0.46875 0.65625 0  0.5 0.65625 0  0.53125 0.65625 0  0.5625 0.65625 0  0.59375 0.65625 0  0.625 0.65625 0  0.65625 0.65625 0  0.6875 0.65625 0  0.71875 0.65625 0  0.75 0.65625 0  0.78125 0.65625 0  0.8125 0.65625 0  0.84375 0.65625 0  0.875 0.65625 0  0.90625 0.65625 0  0.9375 0.65625 0  0.96875 0.65625 0  1 0.65625 0  0.03125 0.703125 0  0 0.703125 0  0.0625 0.703125 0  0.09375 0.703125 0  0.125 0.703125 0  0.15625 0.703125 0  0.1875 0.703125 0  0.21875 0.703125 0  0.25 0.703125 0  0.28125 0.703125 0  0.3125 0.703125 0  0.34375 0.703125 0  0.375 0.703125 0  0.40625 0.703125 0  0.4375 0.703125 0  0.46875 0.703125 0  0.5 0.703125 0  0.53125 0.703125 0  0.5625 0.703125 0  0.59375 0.703125 0  0.625 0.703125 0  0.65625 0.703125 0  0.6875 0.703125 0  0.71875 0.703125 0  0.75 0.703125 0  0.78125 0.703125 0  0.8125 0.703125 0  0.84375 0.703125 0  0.875 0.703125 0  0.90625 0.703125 0  0.9375 0.703125 0  0.96875 0.703125 0  1 0.703125 0  0.03125 0.75 0  0 0.75 0  0.0625 0.75 0  0.09375 0.75 0  0.125 0.75 0  0.15625 0.75 0  0.1875 0.75 0  0.21875 0.75 0  0.25 0.75 0  0.28125 0.75 0  0.3125 0.75 0  0.34375 0.75 0  0.375 0.75 0  0.40625 0.75 0  0.4375 0.75 0  0.46875 0.75 0  0.5 0.75 0  0.53125 0.75 0  0.5625 0.75 0  0.59375 0.75 0  0.625 0.75 0  0.65625 0.75 0  0.6875 0.75 0  0.71875 0.75 0  0.75 0.75 0  0.78125 0.75 0  0.8125 0.75 0  0.84375 0.75 0  0.875 0.75 0  0.90625 0.75 0  0.9375 0.75 0  0.96875 0.75 0  1 0.75 0  0.03125 0.796875 0  0 0.796875 0  0.0625 0.796875 0  0.09375 0.796875 0  0.125 0.796875 0  0.15625 0.796875 0  0.1875 0.796875 0  0.21875 0.796875 0  0.25 0.796875 0  0.28125 0.796875 0  0.3125 0.796875 0  0.34375 0.796875 0  0.375 0.796875 0  0.40625 0.796875 0  0.4375 0.796875 0  0.46875 0.796875 0  0.5 0.796875 0  0.53125 0.796875 0  0.5625 0.796875 0  0.59375 0.796875 0  0.625 0.796875 0  0.65625 0.796875 0  0.6875 0.796875 0  0.71875 0.796875 0  0.75 0.796875 0  0.78125 0.796875 0  0.8125 0.796875 0  0.84375 0.796875 0  0.875 0.796875 0  0.90625 0.796875 0  0.9375 0.796875 0  0.96875 0.796875 0  1 0.796875 0  0.03125 0.84375 0  0 0.84375 0  0.0625 0.84375 0  0.09375 0.84375 0  0.125 0.84375 0  0.15625 0.84375 0  0.1875 0.84375 0  0.21875 0.84375 0  0.25 0.84375 0  0.28125 0.84375 0  0.3125 0.84375 0  0.34375 0.84375 0  0.375 0.84375 0  0.40625 0.84375 0  0.4375 0.84375 0  0.46875 0.84375 0  0.5 0.84375 0  0.53125 0.84375 0  0.5625 0.84375 0  0.59375 0.84375 0  0.625 0.84375 0  0.65625 0.84375 0  0.6875 0.84375 0  0.71875 0.84375 0  0.75 0.84375 0  0.78125 0.84375 0  0.8125 0.84375 0  0.84375 0.84375 0  0.875 0.84375 0  0.90625 0.84375 0  0.9375 0.84375 0  0.96875 0.84375 0  1 0.84375 0  0.03125 0.890625 0  0 0.890625 0  0.0625 0.890625 0  0.09375 0.890625 0  0.125 0.890625 0  0.15625 0.890625 0  0.1875 0.890625 0  0.21875 0.890625 0  0.25 0.890625 0  0.28125 0.890625 0  0.3125 0.890625 0  0.34375 0.890625 0  0.375 0.890625 0  0.40625 0.890625 0  0.4375 0.890625 0  0.46875 0.890625 0  0.5 0.890625 0  0.53125 0.890625 0  0.5625 0.890625 0  0.59375 0.890625 0  0.625 0.890625 0  0.65625 0.890625 0  0.6875 0.890625 0  0.71875 0.890625 0  0.75 0.890625 0  0.78125 0.890625 0  0.8125 0.890625 0  0.84375 0.890625 0  0.875 0.890625 0  0.90625 0.890625 0  0.9375 0.890625 0  0.96875 0.890625 0  1 0.890625 0  0.03125 0.9375 0  0 0.9375 0  0.0625 0.9375 0  0.09375 0.9375 0  0.125 0.9375 0  0.15625 0.9375 0  0.1875 0.9375 0  0.21875 0.9375 0  0.25 0.9375 0  0.28125 0.9375 0  0.3125 0.9375 0  0.34375 0.9375 0  0.375 0.9375 0  0.40625 0.9375 0  0.4375 0.9375 0  0.46875 0.9375 0  0.5 0.9375 0  0.53125 0.9375 0  0.5625 0.9375 0  0.59375 0.9375 0  0.625 0.9375 0  0.65625 0.9375 0  0.6875 0.9375 0  0.71875 0.9375 0  0.75 0.9375 0  0.78125 0.9375 0  0.8125 0.9375 0  0.84375 0.9375 0  0.875 0.9375 0  0.90625 0.9375 0  0.9375 0.9375 0  0.96875 0.9375 0  1 0.9375 0  0.03125 0.984375 0  0 0.984375 0  0.0625 0.984375 0  0.09375 0.984375 0  0.125 0.984375 0  0.15625 0.984375 0  0.1875 0.984375 0  0.21875 0.984375 0  0.25 0.984375 0  0.28125 0.984375 0  0.3125 0.984375 0  0.34375 0.984375 0  0.375 0.984375 0  0.40625 0.984375 0  0.4375 0.984375 0  0.46875 0.984375 0  0.5 0.984375 0  0.53125 0.984375 0  0.5625 0.984375 0  0.59375 0.984375 0  0.625 0.984375 0  0.65625 0.984375 0  0.6875 0.984375 0  0.71875 0.984375 0  0.75 0.984375 0  0.78125 0.984375 0  0.8125 0.984375 0  0.84375 0.984375 0  0.875 0.984375 0  0.90625 0.984375 0  0.9375 0.984375 0  0.96875 0.984375 0  1 0.984375 0  0.03125 1.03125 0  0 1.03125 0  0.0625 1.03125 0  0.09375 1.03125 0  0.125 1.03125 0  0.15625 1.03125 0  0.1875 1.03125 0  0.21875 1.03125 0  0.25 1.03125 0  0.28125 1.03125 0  0.3125 1.03125 0  0.34375 1.03125 0  0.375 1.03125 0  0.40625 1.03125 0  0.4375 1.03125 0  0.46875 1.03125 0  0.5 1.03125 0  0.53125 1.03125 0  0.5625 1.03125 0  0.59375 1.03125 0  0.625 1.03125 0  0.65625 1.03125 0  0.6875 1.03125 0  0.71875 1.03125 0  0.75 1.03125 0  0.78125 1.03125 0  0.8125 1.03125 0  0.84375 1.03125 0  0.875 1.03125 0  0.90625 1.03125 0  0.9375 1.03125 0  0.96875 1.03125 0  1 1.03125 0  0.03125 1.078125 0  0 1.078125 0  0.0625 1.078125 0  0.09375 1.078125 0  0.125 1.078125 0  0.15625 1.078125 0  0.1875 1.078125 0  0.21875 1.078125 0  0.25 1.078125 0  0.28125 1.078125 0  0.3125 1.078125 0  0.34375 1.078125 0  0.375 1.078125 0  0.40625 1.078125 0  0.4375 1.078125 0  0.46875 1.078125 0  0.5 1.078125 0  0.53125 1.078125 0  0.5625 1.078125 0  0.59375 1.078125 0  0.625 1.078125 0  0.65625 1.078125 0  0.6875 1.078125 0  0.71875 1.078125 0  0.75 1.078125 0  0.78125 1.078125 0  0.8125 1.078125 0  0.84375 1.078125 0  0.875 1.078125 0  0.90625 1.078125 0  0.9375 1.078125 0  0.96875 1.078125 0  1 1.078125 0  0.03125 1.125 0  0 1.125 0  0.0625 1.125 0  0.09375 1.125 0  0.125 1.125 0  0.15625 1.125 0  0.1875 1.125 0  0.21875 1.125 0  0.25 1.125 0  0.28125 1.125 0  0.3125 1.125 0  0.34375 1.125 0  0.375 1.125 0  0.40625 1.125 0  0.4375 1.125 0  0.46875 1.125 0  0.5 1.125 0  0.53125 1.125 0  0.5625 1.125 0  0.59375 1.125 0  0.625 1.125 0  0.65625 1.125 0  0.6875 1.125 0  0.71875 1.125 0  0.75 1.125 0  0.78125 1.125 0  0.8125 1.125 0  0.84375 1.125 0  0.875 1.125 0  0.90625 1.125 0  0.9375 1.125 0  0.96875 1.125 0  1 1.125 0  0.03125 1.171875 0  0 1.171875 0  0.0625 1.171875 0  0.09375 1.171875 0  0.125 1.171875 0  0.15625 1.171875 0  0.1875 1.171875 0  0.21875 1.171875 0  0.25 1.171875 0  0.28125 1.171875 0  0.3125 1.171875 0  0.34375 1.171875 0  0.375 1.171875 0  0.40625 1.171875 0  0.4375 1.171875 0  0.46875 1.171875 0  0.5 1.171875 0  0.53125 1.171875 0  0.5625 1.171875 0  0.59375 1.171875 0  0.625 1.171875 0  0.65625 1.171875 0  0.6875 1.171875 0  0.71875 1.171875 0  0.75 1.171875 0  0.78125 1.171875 0  0.8125 1.171875 0  0.84375 1.171875 0  0.875 1.171875 0  0.90625 1.171875 0  0.9375 1.171875 0  0.96875 1.171875 0  1 1.171875 0  0.03125 1.21875 0  0 1.21875 0  0.0625 1.21875 0  0.09375 1.21875 0  0.125 1.21875 0  0.15625 1.21875 0  0.1875 1.21875 0  0.21875 1.21875 0  0.25 1.21875 0  0.28125 1.21875 0  0.3125 1.21875 0  0.34375 1.21875 0  0.375 1.21875 0  0.40625 1.21875 0  0.4375 1.21875 0  0.46875 1.21875 0  0.5 1.21875 0  0.53125 1.21875 0  0.5
[...]
<PointData  Vectors="u"> 
<DataArray  type="Float64"  Name="u"  NumberOfComponents="3" format="ascii">1.4116401377635816e-02 7.1452961736872384e-04 0.0000000000000000e+00  1.6277594764688093e-02 3.9893960323592985e-03 0.0000000000000000e+00  1.7909144332574678e-02 4.2714885596109049e-03 0.0000000000000000e+00  1.5337466719262999e-02 9.3240335965907840e-04 0.0000000000000000e+00  1.5726478896747720e-02 7.2650184709600321e-03 0.0000000000000000e+00  1.7523748692236715e-02 7.8605041580704655e-03 0.0000000000000000e+00  1.4635499663309006e-02 1.0194597707286953e-02 0.0000000000000000e+00  1.6218954551718030e-02 1.1032496454618020e-02 0.0000000000000000e+00  1.3206364417090865e-02 1.2658701159960347e-02 0.0000000000000000e+00  1.4558906921070617e-02 1.3676000533763123e-02 0.0000000000000000e+00  1.1547067339032033e-02 1.4591627745674464e-02 0.0000000000000000e+00  1.2696879391417844e-02 1.5729459703308458e-02 0.0000000000000000e+00  9.7472970724187848e-03 1.5949101056767979e-02 0.0000000000000000e+00  1.0721973557521740e-02 1.7154521830997749e-02 0.0000000000000000e+00  7.8853435118855213e-03 1.6707077814909672e-02 0.0000000000000000e+00  8.7091863170028795e-03 1.7933222475499146e-02 0.0000000000000000e+00  6.0301711555401623e-03 1.6861461453753456e-02 0.0000000000000000e+00  6.7244910579531457e-03 1.8067048805122207e-02 0.0000000000000000e+00  4.2423886125202374e-03 1.6426885492505209e-02 0.0000000000000000e+00  4.8257588011931382e-03 1.7575810607163966e-02 0.0000000000000000e+00  2.5748480451530361e-03 1.5435088286241089e-02 0.0000000000000000e+00  3.0635719179874336e-03 1.6496005225547207e-02 0.0000000000000000e+00  1.0731511086653853e-03 1.3932962908886942e-02 0.0000000000000000e+00  1.4814285657932162e-03 1.4879010835281014e-02 0.0000000000000000e+00  -2.2398432950630439e-04 1.1980579347603257e-02 0.0000000000000000e+00  1.1630091042284506e-04 1.2789083037396102e-02 0.0000000000000000e+00  -1.2843380750809825e-03 9.6491059426421482e-03 0.0000000000000000e+00  -1.0012059692468629e-03 1.0301406827346538e-02 0.0000000000000000e+00  -2.0819653200244807e-03 7.0188192213227630e-03 0.0000000000000000e+00  -1.8465194521687161e-03 7.5000885076922158e-03 0.0000000000000000e+00  -2.5969919051252125e-03 4.1770797431911416e-03 0.0000000000000000e+00  -2.4010616942787689e-03 4.4762585268039463e-03 0.0000000000000000e+00  -2.8154928342808143e-03 1.2163924412510769e-03 0.0000000000000000e+00  -2.6520357756081013e-03 1.3261343366933504e-03 0.0000000000000000e+00  -2.7294287753063524e-03 -1.7675672850182051e-03 0.0000000000000000e+00  -2.5925291121683142e-03 -1.8508329138908542e-03 0.0000000000000000e+00  -2.3367057827460244e-03 -4.6779007471836297e-03 0.0000000000000000e+00  -2.2215448427061082e-03 -4.9538834079203304e-03 0.0000000000000000e+00  -1.6412669582010389e-03 -7.4185141325487838e-03 0.0000000000000000e+00  -1.5442394894693706e-03 -7.8828699094452854e-03 0.0000000000000000e+00  -6.5326501587890918e-04 -9.8961889339807749e-03 0.0000000000000000e+00  -5.7210957467020130e-04 -1.0540304149273688e-02 0.0000000000000000e+00  6.1070613254503271e-04 -1.2022787638499939e-02 0.0000000000000000e+00  6.7657753219137803e-04 -1.2833474492194108e-02 0.0000000000000000e+00  2.1273105175246936e-03 -1.3717545871710637e-02 0.0000000000000000e+00  2.1764359515944712e-03 -1.4676733247656100e-02 0.0000000000000000e+00  3.8662201663111884e-03 -1.4909525779062162e-02 0.0000000000000000e+00  3.8944696379647303e-03 -1.5993886323558307e-02 0.0000000000000000e+00  5.7898221091729537e-03 -1.5540144668760419e-02 0.0000000000000000e+00  5.7897040448165763e-03 -1.6720742741090949e-02 0.0000000000000000e+00  7.8529927303776989e-03 -1.5565812536096846e-02 0.0000000000000000e+00  7.8126760418270966e-03 -1.6807709951145226e-02 0.0000000000000000e+00  1.0002713820153948e-02 -1.4960564981342675e-02 0.0000000000000000e+00  9.9050453451997728e-03 -1.6222436986826447e-02 0.0000000000000000e+00  1.2176840484517799e-02 -1.3718705127176085e-02 0.0000000000000000e+00  1.1998426959532162e-02 -1.4952356742873688e-02 0.0000000000000000e+00  1.4298488584524194e-02 -1.1857511983177494e-02 0.0000000000000000e+00  1.4010395172575416e-02 -1.3007184161890180e-02 0.0000000000000000e+00  1.6249774636042824e-02 -9.4210525673075560e-03 0.0000000000000000e+00  1.5825468733270356e-02 -1.0421945998155496e-02 0.0000000000000000e+00  1.7752578279340160e-02 -6.4917803169282527e-03 0.0000000000000000e+00  1.7208733996789606e-02 -7.2655742782805136e-03 0.0000000000000000e+00  1.7927576623683546e-02 -3.2623582792471093e-03 0.0000000000000000e+00  1.7459893507933026e-02 -3.6937566276351447e-03 0.0000000000000000e+00  1.5189945687272208e-02 -3.0009062242882022e-04 0.0000000000000000e+00  1.4590423255152488e-02 -4.1159118324514112e-04 0.0000000000000000e+00  1.9809735360437671e-02 5.0661778417526188e-03 0.0000000000000000e+00  1.7169906521259867e-02 1.3983233892381096e-03 0.0000000000000000e+00  1.9303854779119022e-02 9.3118701440071568e-03 0.0000000000000000e+00  1.7925723028473849e-02 1.3011101618750338e-02 0.0000000000000000e+00  1.6157623148164789e-02 1.6036969887431279e-02 0.0000000000000000e+00  1.4168985339424192e-02 1.8340962295431116e-02 0.0000000000000000e+00  1.2062183292403666e-02 1.9898677227317148e-02 0.0000000000000000e+00  9.9185028035274018e-03 2.0705425867468534e-02 0.0000000000000000e+00  7.8080839189992477e-03 2.0775308305157936e-02 0.0000000000000000e+00  5.7924361522332501e-03 2.0139911787708950e-02 0.0000000000000000e+00  3.9246073234902226e-03 1.8846798028987050e-02 0.0000000000000000e+00  2.2501754392168860e-03 1.6957643570992813e-02 0.0000000000000000e+00  8.0730725382387582e-04 1.4546432165787038e-02 0.0000000000000000e+00  -3.7234891423731215e-04 1.1697479274114991e-02 0.0000000000000000e+00  -1.2637324200788164e-03 8.5036654857536392e-03 0.0000000000000000e+00  -1.8477151679264247e-03 5.0645554339190796e-03 0.0000000000000000e+00  -2.1112146058665910e-03 1.4847363849530826e-03 0.0000000000000000e+00  -2.0468986615331990e-03 -2.1279715822831355e-03 0.0000000000000000e+00  -1.6535183683974281e-03 -5.6641605303214262e-03 0.0000000000000000e+00  -9.3588904399334355e-04 -9.0146648506077565e-03 0.0000000000000000e+00  9.4558434623747662e-05 -1.2072360052559827e-02 0.0000000000000000e+00  1.4194910437607172e-03 -1.4734198127392477e-02 0.0000000000000000e+00  3.0128871801935065e-03 -1.6903307991652773e-02 0.0000000000000000e+00  4.8406517539593113e-03 -1.8491347901055617e-02 0.0000000000000000e+00  6.8597423304320041e-03 -1.9420936019865720e-02 0.0000000000000000e+00  9.0177595279218471e-03 -1.9628254473218271e-02 0.0000000000000000e+00  1.1252072928165527e-02 -1.9065606806930629e-02 0.0000000000000000e+00  1.3488745222120103e-02 -1.7703934100296415e-02 0.0000000000000000e+00  1.5637769953612039e-02 -1.5535152322545022e-02 0.0000000000000000e+00  1.7572051675988510e-02 -1.2575104659005661e-02 0.0000000000000000e+00  1.9028166190426455e-02 -8.8733607765998836e-03 0.0000000000000000e+00  1.9188202594933128e-02 -4.5895408297277600e-03 0.0000000000000000e+00  1.5681247071280470e-02 -8.5876885119909492e-04 0.0000000000000000e+00  2.2684892923940419e-02 6.0281208130085985e-03 0.0000000000000000e+00  1.9756186305037539e-02 1.8639414491501229e-03 0.0000000000000000e+00  2.2100835330402316e-02 1.1038770282649355e-02 0.0000000000000000e+00  2.0603351524460422e-02 1.5355446003302544e-02 0.0000000000000000e+00  1.8691578034532880e-02 1.8829873132600889e-02 0.0000000000000000e+00  1.6542526484524509e-02 2.1425988207316924e-02 0.0000000000000000e+00  1.4266162375801170e-02 2.3135534130025344e-02 0.0000000000000000e+00  1.1951683723025526e-02 2.3970066375315732e-02 0.0000000000000000e+00  9.6763471721841333e-03 2.3959181337302602e-02 0.0000000000000000e+00  7.5064879451369583e-03 2.3149099337076335e-02 0.0000000000000000e+00  5.4994502825486012e-03 2.1600960158188992e-02 0.0000000000000000e+00  3.7032104847831131e-03 1.9389080380923917e-02 0.0000000000000000e+00  2.1581699208576928e-03 1.6599034369458827e-02 0.0000000000000000e+00  8.9682910291380251e-04 1.3325958789607888e-02 0.0000000000000000e+00  -5.4679652037932053e-05 9.6727371751053164e-03 0.0000000000000000e+00  -6.7697101670810718e-04 5.7485309446007708e-03 0.0000000000000000e+00  -9.5624269840357721e-04 1.6671359730985413e-03 0.0000000000000000e+00  -8.8487087663159842e-04 -2.4543226364466273e-03 0.0000000000000000e+00  -4.6082312361911106e-04 -6.4969596155362193e-03 0.0000000000000000e+00  3.1152014897107986e-04 -1.0341481553297361e-02 0.0000000000000000e+00  1.4214359433967671e-03 -1.3869885381063226e-02 0.0000000000000000e+00  2.8506816335349249e-03 -1.6967101099492270e-02 0.0000000000000000e+00  4.5731713104096173e-03 -1.9523013620844298e-02 0.0000000000000000e+00  6.5536176216263514e-03 -2.1434559106755287e-02 0.0000000000000000e+00  8.7470547029135943e-03 -2.2608149913690392e-02 0.0000000000000000e+00  1.1097458732361315e-02 -2.2962175584615802e-02 0.0000000000000000e+00  1.3537294971632679e-02 -2.2429653140207513e-02 0.0000000000000000e+00  1.5985488259874510e-02 -2.0960793728009224e-02 0.0000000000000000e+00  1.8342396200157138e-02 -1.8525605967107214e-02 0.0000000000000000e+00  2.0464052960324438e-02 -1.5117521629900208e-02 0.0000000000000000e+00  2.2041982081503667e-02 -1.0767020528890496e-02 0.0000000000000000e+00  2.2093538831512206e-02 -5.6509280564397604e-03 0.0000000000000000e+00  1.7841475023716899e-02 -1.3598293646238406e-03 0.0000000000000000e+00  2.6554407558120035e-02 7.0926766802068900e-03 0.0000000000000000e+00  2.3140644940385806e-02 2.3477420449159033e-03 0.0000000000000000e+00  2.5920204664579328e-02 1.2945534208070292e-02 0.0000000000000000e+00  2.4291374491246381e-02 1.7936852657515646e-02 0.0000000000000000e+00  2.2217000515824502e-02 2.1897911170531088e-02 0.0000000000000000e+00  1.9887244907345662e-02 2.4807000448371263e-02 0.0000000000000000e+00  1.7422362051815743e-02 2.6674161150705849e-02 0.0000000000000000e+00  1.4920901697556109e-02 2.7529641065730456e-02 0.0000000000000000e+00  1.2466628294963610e-02 2.7421126555097975e-02 0.0000000000000000e+00  1.0132015851123012e-02 2.6411903245420056e-02 0.0000000000000000e+00  7.9775588843528696e-03 2.4578912675254954e-02 0.0000000000000000e+00  6.0544308026769071e-03 2.2010860746689814e-02 0.0000000000000000e+00  4.4036921071659001e-03 1.8806374648620960e-02 0.0000000000000000e+00  3.0591849152073278e-03 1.5072272547257699e-02 0.0000000000000000e+00  2.0465510198677747e-03 1.0922116787910992e-02 0.0000000000000000e+00  1.3858516774323212e-03 6.4747749431407851e-03 0.0000000000000000e+00  1.0904281304061189e-03 1.8533857356056770e-03 0.0000000000000000e+00  1.1688261326639855e-03 -2.8158739080632036e-03 0.0000000000000000e+00  1.6232898317777474e-03 -7.4046231853799925e-03 0.0000000000000000e+00  2.4508673433599176e-03 -1.1783523668273191e-02 0.0000000000000000e+00  3.6415678868816550e-03 -1.5823280929114711e-02 0.0000000000000000e+00  5.1785742676783856e-03 -1.9396174842395506e-02 0.0000000000000000e+00  7.0360814404992018e-03 -2.2377573074527202e-02 0.0000000000000000e+00  9.1790108931318875e-03 -2.4647964139099959e-02 0.0000000000000000e+00  1.1560784667079497e-02 -2.6095156573006113e-02 0.0000000000000000e+00  1.4122820835274741e-02 -2.6616864580890326e-02 0.0000000000000000e+00  1.6792575667086456e-02 -2.6123465095648637e-02 0.0000000000000000e+00  1.9482169153826438e-02 -2.4540924274760297e-02 0.0000000000000000e+00  2.2081282191134102e-02 -2.1813996835629509e-02 0.0000000000000000e+00  2.4426786656428941e-02 -1.7911166454323137e-02 0.0000000000000000e+00  2.6155298446312387e-02 -1.2843079030893486e-02 0.0000000000000000e+00  2.6081731186603136e-02 -6.8066066718712476e-03 0.0000000000000000e+00  2.0887048717788681e-02 -1.8581570631643182e-03 0.0000000000000000e+00  3.1464577822597366e-02 8.2557507468439054e-03 0.0000000000000000e+00  2.7365435071747057e-02 2.8712403983642220e-03 0.0000000000000000e+00  3.0807987889739187e-02 1.5022669706583825e-02 0.0000000000000000e+00  2.9043920409728193e-02 2.0740693737165739e-02 0.0000000000000000e+00  2.6801026131307606e-02 2.5220868220643622e-02 0.0000000000000000e+00  2.4288821152194148e-02 2.8457717193212630e-02 0.0000000000000000e+00  2.1639551329509961e-02 3.0482442558718459e-02 0.0000000000000000e+00  1.8959816635967540e-02 3.1346995417620323e-02 0.0000000000000000e+00  1.6340676254520056e-02 3.1120270721408952e-02 0.0000000000000000e+00  1.3858157231528325e-02 2.9885424742500808e-02 0.0000000000000000e+00  1.1576294476469112e-02 2.7737692582763495e-02 0.0000000000000000e+00  9.5462173504020868e-03 2.4782099106400658e-02 0.0000000000000000e+00  7.8100234962296382e-03 2.1131690823582416e-02 0.0000000000000000e+00  6.3995607617703589e-03 1.6905810548082024e-02 0.0000000000000000e+00  5.3406075445331328e-03 1.2228901141427398e-02 0.0000000000000000e+00  4.6510165242052131e-03 7.2294786347844595e-03 0.0000000000000000e+00  4.3447282329110940e-03 2.0393897396943131e-03 0.0000000000000000e+00  4.4292168561040493e-03 -3.2066589703827904e-03 0.0000000000000000e+00  4.9085375320460792e-03 -8.3716737085066072e-03 0.0000000000000000e+00  5.7803255579628411e-03 -1.3316674331762689e-02 0.0000000000000000e+00  7.0375180980166369e-03 -1.7901470385207629e-02 0.0000000000000000e+00  8.6649942092408561e-03 -2.1985329697463696e-02 0.0000000000000000e+00  1.0639895323881526e-02 -2.5428321134759811e-02 0.0000000000000000e+00  1.2928337937982841e-02 -2.8092829459756337e-02 0.0000000000000000e+00  1.5484859514510837e-02 -2.9845723279858481e-02 0.0000000000000000e+00  1.8249482993075033e-02 -3.0560916744649023e-02 0.0000000000000000e+00  2.1146871237564591e-02 -3.0122416824805154e-02 0.0000000000000000e+00  2.4082968771180335e-02 -2.8427811344950871e-02 0.0000000000000000e+00  2.6937504237588342e-02 -2.5392366263397536e-02 0.0000000000000000e+00  2.9525885436464651e-02 -2.0955738243283784e-02 0.0000000000000000e+00  3.1419716229075405e-02 -1.5105821969471463e-02 0.0000000000000000e+00  3.1186029589222102e-02 -8.0601159906129420e-03 0.0000000000000000e+00  2.4808133000963711e-02 -2.3729759842651796e-03 0.0000000000000000e+00  3.7508511321982428e-02 9.5177020673046075e-03 0.0000000000000000e+00  3.2504238726596892e-02 3.4512676398051438e-03 0.0000000000000000e+00  3.6862295739108750e-02 1.7266470444081999e-02 0.0000000000000000e+00  3.4968535610182316e-02 2.3757717738764682e-02 0.0000000000000000e+00  3.2565010215716964e-02 2.8781669098938929e-02 0.0000000000000000e+00  2.9887505998042487e-02 3.2352307765419627e-02 0.0000000000000000e+00  2.7080043772269347e-02 3.4525766232306659e-02 0.0000000000000000e+00  2.4257482092133374e-02 3.5379804345093163e-02 0.0000000000000000e+00  2.1515092297991392e-02 3.5008309918484498e-02 0.0000000000000000e+00  1.8931792354821279e-02 3.3517875268952953e-02 0.0000000000000000e+00  1.6570684912625044e-02 3.1024763218274937e-02 0.0000000000000000e+00  1.4482284624078254e-02 2.7652538140331074e-02 0.0000000000000000e+00  1.2704595145380720e-02 2.3529875072245146e-02 0.0000000000000000e+00  1.1267704211033031e-02 1.8789270978424602e-02 0.0000000000000000e+00  1.0192519046048610e-02 1.3565829201529572e-02 0.0000000000000000e+00  9.4960957330987202e-03 7.9969907971071709e-03 0.0000000000000000e+00  9.1888275355052791e-03 2.2221641563899787e-03 0.0000000000000000e+00  9.2796241334113932e-03 -3.6169181957028183e-03 0.0000000000000000e+00  9.7716491067611714e-03 -9.3760277256151967e-03 0.0000000000000000e+00  1.0666431777383245e-02 -1.4908039891573136e-02 0.0000000000000000e+00  1.1958980275707836e-02 -2.0062714090765110e-02 0.0000000000000000e+00  1.3639746808755944e-02 -2.4686864862353129e-02 0.0000000000000000e+00  1.5689769850124810e-02 -2.8624788373554411e-02 0.0000000000000000e+00  1.8080571813739923e-02 -3.1719532008380777e-02 0.0000000000000000e+00  2.0769935404724254e-02 -3.3814631817102099e-02 0.0000000000000000e+00  2.3700476579427501e-02 -3.4756799691626136e-02 0.0000000000000000e+00  2.6796366477143410e-02 -3.4399272107047373e-02 0.0000000000000000e+00  2.9960252125041636e-02 -3.2606036396301073e-02 0.0000000000000000e+00  3.3062791289388722e-02 -2.9257148608789540e-02 0.0000000000000000e+00  3.5896654162027933e-02 -2.4257540740096704e-02 0.0000000000000000e+00  3.7956711723002350e-02 -1.7567090106389360e-02 0.0000000000000000e+00  3.7509729128386786e-02 -9.4232438212388855e-03 0.0000000000000000e+00  2.9663594473441773e-02 -2.9289519747384973e-03 0.0000000000000000e+00  4.4816238041698091e-02 1.0874324550923320e-02 0.0000000000000000e+00  3.8657547778565372e-02 4.1014099452726660e-03 0.0000000000000000e+00  4.4222255511719606e-02 1.9664320469906654e-02 0.0000000000000000e+00  4.2214764050203336e-02 2.6963504511193722e-02 0.0000000000000000e+00  3.9674079597373679e-02 3.2541519272891527e-02 0.0000000000000000e+00  3.6868346090080467e-02 3.6436687849015104e-02 0.0000000000000000e+00  3.3954090740807026e-02 3.8735594077176000e-02 0.0000000000000000e+00  3.1052329963733062e-02 3.9547285600615392e-02 0.0000000000000000e+00  2.8260387762873596e-02 3.8995704742384528e-02 0.0000000000000000e+00  2.5655571563774765e-02 3.7215115052791022e-02 0.0000000000000000e+00  2.3297306266839575e-02 3.4346191537255877e-02 0.0000000000000000e+00  2.1229602809638773e-02 3.0533150167659534e-02 0.0000000000000000e+00  1.9484510342567284e-02 2.5921547289420623e-02 0.0000000000000000e+00  1.8083898685577079e-02 2.0656912964233557e-02 0.0000000000000000e+00  1.7043930154741923e-02 1.4884338026478268e-02 0.0000000000000000e+00  1.6374670170344836e-02 8.7483367097572918e-03 0.0000000000000000e+00  1.6085450055452137e-02 2.3938823032224805e-03 0.0000000000000000e+00  1.6181646297588417e-02 -4.0329588254168049e-03 0.0000000000000000e+00  1.6669877859868676e-02 -1.0383237681409370e-02 0.0000000000000000e+00  1.7552691545909726e-02 -1.6504188347366135e-02 0.0000000000000000e+00  1.8832421028580033e-02 -2.2237638629344282e-02 0.0000000000000000e+00  2.0504946610486470e-02 -2.7419263192986564e-02 0.0000000000000000e+00  2.2560816919325741e-02 -3.1878184245393418e-02 0.0000000000000000e+00  2.4979486899428333e-02 -3.5437261971044243e-02 0.0000000000000000e+00  2.7727702747728875e-02 -3.7914660652121936e-02 0.0000000000000000e+00  3.0754735943413800e-02 -3.9126160323078807e-02 0.0000000000000000e+00  3.3989354767189624e-02 -3.8889082693401966e-02 0.0000000000000000e+00  3.7334591964896774e-02 -3.7027205123358858e-02 0.0000000000000000e+00  4.0654764978184058e-02 -3.3377682194349625e-02 0.0000000000000000e+00  4.3718829843540419e-02 -2.7802340106930234e-02 0.0000000000000000e+00  4.5932246472645648e-02 -2.0224969962638787e-02 0.0000000000000000e+00  4.5200846913653538e-02 -1.0900615468546803e-02 0.0000000000000000e+00  3.5551873689664115e-02 -3.5458897261688984e-03 0.0000000000000000e+00  5.3548276508897596e-02 1.2315022509363819e-02 0.0000000000000000e+00  4.5947407031157947e-02 4.8334414779600031e-03 0.0000000000000000e+00  5.3059467600182306e-02 2.2190257140879136e-02 0.0000000000000000e+00  5.0966340125263507e-02 3.0312399737121444e-02 0.0000000000000000e+00  4.8329606523024073e-02 3.6432152170150528e-02 0.0000000000000000e+00  4.5456503920262861e-02 4.0619382637728178e-02 0.0000000000000000e+00  4.2516021391757634e-02 4.2999125475383405e-02 0.0000000000000000e+00  3.9632629887611744e-02 4.3719135110460182e-02 0.0000000000000000e+00  3.6901450661999097e-02 4.2940143744421129e-02 0.0000000000000000e+00  3.4393173900146748e-02 4.0829297000322833e-02 0.0000000000000000e+00  3.2157461418078827e-02 3.7555601448342572e-02 0.0000000000000000e+00  3.0226757644726637e-02 3.3286096405290247e-02 0.0000000000000000e+00  2.8620474451968934e-02 2.8183923911210673e-02 0.0000000000000000e+00  2.7349004131001848e-02 2.2407023654491251e-02 0.0000000000000000e+00  2.6417130849988035e-02 1.6108408138060699e-02 0.0000000000000000e+00  2.5827597294128854e-02 9.4370775680836672e-03 0.0000000000000000e+00  2.5582619149802345e-02 2.5396404011027575e-03 0.0000000000000000e+00  2.5686972335880055e-02 -4.4371221889908672e-03 0.0000000000000000e+00  