<?xml version="1.0"?>
<VTKFile type="UnstructuredGrid"  version="0.1"  >
<UnstructuredGrid>
<Piece  NumberOfPoints="759" NumberOfCells="1408">
<Points>
<DataArray  type="Float64"  NumberOfComponents="3"  format="ascii">0 0.46875 0  0.03125 0.46875 0  0.03125 0.515625 0  0 0.515625 0  0.0625 0.46875 0  0.0625 0.515625 0  0.09375 0.46875 0  0.09375 0.515625 0  0.125 0.46875 0  0.125 0.515625 0  0.15625 0.46875 0  0.15625 0.515625 0  0.1875 0.46875 0  0.1875 0.515625 0  0.21875 0.46875 0  0.21875 0.515625 0  0.25 0.46875 0  0.25 0.515625 0  0.28125 0.46875 0  0.28125 0.515625 0  0.3125 0.46875 0  0.3125 0.515625 0  0.34375 0.46875 0  0.34375 0.515625 0  0.375 0.46875 0  0.375 0.515625 0  0.40625 0.46875 0  0.40625 0.515625 0  0.4375 0.46875 0  0.4375 0.515625 0  0.46875 0.46875 0  0.46875 0.515625 0  0.5 0.46875 0  0.5 0.515625 0  0.53125 0.46875 0  0.53125 0.515625 0  0.5625 0.46875 0  0.5625 0.515625 0  0.59375 0.46875 0  0.59375 0.515625 0  0.625 0.46875 0  0.625 0.515625 0  0.65625 0.46875 0  0.65625 0.515625 0  0.6875 0.46875 0  0.6875 0.515625 0  0.71875 0.46875 0  0.71875 0.515625 0  0.75 0.46875 0  0.75 0.515625 0  0.78125 0.46875 0  0.78125 0.515625 0  0.8125 0.46875 0  0.8125 0.515625 0  0.84375 0.46875 0  0.84375 0.515625 0  0.875 0.46875 0  0.875 0.515625 0  0.90625 0.46875 0  0.90625 0.515625 0  0.9375 0.46875 0  0.9375 0.515625 0  0.96875 0.46875 0  0.96875 0.515625 0  1 0.46875 0  1 0.515625 0  0.03125 0.5625 0  0 0.5625 0  0.0625 0.5625 0  0.09375 0.5625 0  0.125 0.5625 0  0.15625 0.5625 0  0.1875 0.5625 0  0.21875 0.5625 0  0.25 0.5625 0  0.28125 0.5625 0  0.3125 0.5625 0  0.34375 0.5625 0  0.375 0.5625 0  0.40625 0.5625 0  0.4375 0.5625 0  0.46875 0.5625 0  0.5 0.5625 0  0.53125 0.5625 0  0.5625 0.5625 0  0.59375 0.5625 0  0.625 0.5625 0  0.65625 0.5625 0  0.6875 0.5625 0  0.71875 0.5625 0  0.75 0.5625 0  0.78125 0.5625 0  0.8125 0.5625 0  0.84375 0.5625 0  0.875 0.5625 0  0.90625 0.5625 0  0.9375 0.5625 0  0.96875 0.5625 0  1 0.5625 0  0.03125 0.609375 0  0 0.609375 0  0.0625 0.609375 0  0.09375 0.609375 0  0.125 0.609375 0  0.15625 0.609375 0  0.1875 0.609375 0  0.21875 0.609375 0  0.25 0.609375 0  0.28125 0.609375 0  0.3125 0.609375 0  0.34375 0.609375 0  0.375 0.609375 0  0.40625 0.609375 0  0.4375 0.609375 0  0.46875 0.609375 0  0.5 0.609375 0  0.53125 0.609375 0  0.5625 0.609375 0  0.59375 0.609375 0  0.625 0.609375 0  0.65625 0.609375 0  0.6875 0.609375 0  0.71875 0.609375 0  0.75 0.609375 0  0.78125 0.609375 0  0.8125 0.609375 0  0.84375 0.609375 0  0.875 0.609375 0  0.90625 0.609375 0  0.9375 0.609375 0  0.96875 0.609375 0  1 0.609375 0  0.03125 0.65625 0  0 0.65625 0  0.0625 0.65625 0  0.09375 0.65625 0  0.125 0.65625 0  0.15625 0.65625 0  0.1875 0.65625 0  0.21875 0.65625 0  0.25 0.65625 0  0.28125 0.65625 0  0.3125 0.65625 0  0.34375 0.65625 0  0.375 0.65625 0  0.40625 0.65625 0  0.4375 0.65625 0  0.46875 0.65625 0  0.5 0.65625 0  0.53125 0.65625 0  0.5625 0.65625 0  0.59375 0.65625 0  0.625 0.65625 0  0.65625 0.65625 0  0.6875 0.65625 0  0.71875 0.65625 0  0.75 0.65625 0  0.78125 0.65625 0  0.8125 0.65625 0  0.84375 0.65625 0  0.875 0.65625 0  0.90625 0.65625 0  0.9375 0.65625 0  0.96875 0.65625 0  1 0.65625 0  0.03125 0.703125 0  0 0.703125 0  0.0625 0.703125 0  0.09375 0.703125 0  0.125 0.703125 0  0.15625 0.703125 0  0.1875 0.703125 0  0.21875 0.703125 0  0.25 0.703125 0  0.28125 0.703125 0  0.3125 0.703125 0  0.34375 0.703125 0  0.375 0.703125 0  0.40625 0.703125 0  0.4375 0.703125 0  0.46875 0.703125 0  0.5 0.703125 0  0.53125 0.703125 0  0.5625 0.703125 0  0.59375 0.703125 0  0.625 0.703125 0  0.65625 0.703125 0  0.6875 0.703125 0  0.71875 0.703125 0  0.75 0.703125 0  0.78125 0.703125 0  0.8125 0.703125 0  0.84375 0.703125 0  0.875 0.703125 0  0.90625 0.703125 0  0.9375 0.703125 0  0.96875 0.703125 0  1 0.703125 0  0.03125 0.75 0  0 0.75 0  0.0625 0.75 0  0.09375 0.75 0  0.125 0.75 0  0.15625 0.75 0  0.1875 0.75 0  0.21875 0.75 0  0.25 0.75 0  0.28125 0.75 0  0.3125 0.75 0  0.34375 0.75 0  0.375 0.75 0  0.40625 0.75 0  0.4375 0.75 0  0.46875 0.75 0  0.5 0.75 0  0.53125 0.75 0  0.5625 0.75 0  0.59375 0.75 0  0.625 0.75 0  0.65625 0.75 0  0.6875 0.75 0  0.71875 0.75 0  0.75 0.75 0  0.78125 0.75 0  0.8125 0.75 0  0.84375 0.75 0  0.875 0.75 0  0.90625 0.75 0  0.9375 0.75 0  0.96875 0.75 0  1 0.75 0  0.03125 0.796875 0  0 0.796875 0  0.0625 0.796875 0  0.09375 0.796875 0  0.125 0.796875 0  0.15625 0.796875 0  0.1875 0.796875 0  0.21875 0.796875 0  0.25 0.796875 0  0.28125 0.796875 0  0.3125 0.796875 0  0.34375 0.796875 0  0.375 0.796875 0  0.40625 0.796875 0  0.4375 0.796875 0  0.46875 0.796875 0  0.5 0.796875 0  0.53125 0.796875 0  0.5625 0.796875 0  0.59375 0.796875 0  0.625 0.796875 0  0.65625 0.796875 0  0.6875 0.796875 0  0.71875 0.796875 0  0.75 0.796875 0  0.78125 0.796875 0  0.8125 0.796875 0  0.84375 0.796875 0  0.875 0.796875 0  0.90625 0.796875 0  0.9375 0.796875 0  0.96875 0.796875 0  1 0.796875 0  0.03125 0.84375 0  0 0.84375 0  0.0625 0.84375 0  0.09375 0.84375 0  0.125 0.84375 0  0.15625 0.84375 0  0.1875 0.84375 0  0.21875 0.84375 0  0.25 0.84375 0  0.28125 0.84375 0  0.3125 0.84375 0  0.34375 0.84375 0  0.375 0.84375 0  0.40625 0.84375 0  0.4375 0.84375 0  0.46875 0.84375 0  0.5 0.84375 0  0.53125 0.84375 0  0.5625 0.84375 0  0.59375 0.84375 0  0.625 0.84375 0  0.65625 0.84375 0  0.6875 0.84375 0  0.71875 0.84375 0  0.75 0.84375 0  0.78125 0.84375 0  0.8125 0.84375 0  0.84375 0.84375 0  0.875 0.84375 0  0.90625 0.84375 0  0.9375 0.84375 0  0.96875 0.84375 0  1 0.84375 0  0.03125 0.890625 0  0 0.890625 0  0.0625 0.890625 0  0.09375 0.890625 0  0.125 0.890625 0  0.15625 0.890625 0  0.1875 0.890625 0  0.21875 0.890625 0  0.25 0.890625 0  0.28125 0.890625 0  0.3125 0.890625 0  0.34375 0.890625 0  0.375 0.890625 0  0.40625 0.890625 0  0.4375 0.890625 0  0.46875 0.890625 0  0.5 0.890625 0  0.53125 0.890625 0  0.5625 0.890625 0  0.59375 0.890625 0  0.625 0.890625 0  0.65625 0.890625 0  0.6875 0.890625 0  0.71875 0.890625 0  0.75 0.890625 0  0.78125 0.890625 0  0.8125 0.890625 0  0.84375 0.890625 0  0.875 0.890625 0  0.90625 0.890625 0  0.9375 0.890625 0  0.96875 0.890625 0  1 0.890625 0  0.03125 0.9375 0  0 0.9375 0  0.0625 0.9375 0  0.09375 0.9375 0  0.125 0.9375 0  0.15625 0.9375 0  0.1875 0.9375 0  0.21875 0.9375 0  0.25 0.9375 0  0.28125 0.9375 0  0.3125 0.9375 0  0.34375 0.9375 0  0.375 0.9375 0  0.40625 0.9375 0  0.4375 0.9375 0  0.46875 0.9375 0  0.5 0.9375 0  0.53125 0.9375 0  0.5625 0.9375 0  0.59375 0.9375 0  0.625 0.9375 0  0.65625 0.9375 0  0.6875 0.9375 0  0.71875 0.9375 0  0.75 0.9375 0  0.78125 0.9375 0  0.8125 0.9375 0  0.84375 0.9375 0  0.875 0.9375 0  0.90625 0.9375 0  0.9375 0.9375 0  0.96875 0.9375 0  1 0.9375 0  0.03125 0.984375 0  0 0.984375 0  0.0625 0.984375 0  0.09375 0.984375 0  0.125 0.984375 0  0.15625 0.984375 0  0.1875 0.984375 0  0.21875 0.984375 0  0.25 0.984375 0  0.28125 0.984375 0  0.3125 0.984375 0  0.34375 0.984375 0  0.375 0.984375 0  0.40625 0.984375 0  0.4375 0.984375 0  0.46875 0.984375 0  0.5 0.984375 0  0.53125 0.984375 0  0.5625 0.984375 0  0.59375 0.984375 0  0.625 0.984375 0  0.65625 0.984375 0  0.6875 0.984375 0  0.71875 0.984375 0  0.75 0.984375 0  0.78125 0.984375 0  0.8125 0.984375 0  0.84375 0.984375 0  0.875 0.984375 0  0.90625 0.984375 0  0.9375 0.984375 0  0.96875 0.984375 0  1 0.984375 0  0.03125 1.03125 0  0 1.03125 0  0.0625 1.03125 0  0.09375 1.03125 0  0.125 1.03125 0  0.15625 1.03125 0  0.1875 1.03125 0  0.21875 1.03125 0  0.25 1.03125 0  0.28125 1.03125 0  0.3125 1.03125 0  0.34375 1.03125 0  0.375 1.03125 0  0.40625 1.03125 0  0.4375 1.03125 0  0.46875 1.03125 0  0.5 1.03125 0  0.53125 1.03125 0  0.5625 1.03125 0  0.59375 1.03125 0  0.625 1.03125 0  0.65625 1.03125 0  0.6875 1.03125 0  0.71875 1.03125 0  0.75 1.03125 0  0.78125 1.03125 0  0.8125 1.03125 0  0.84375 1.03125 0  0.875 1.03125 0  0.90625 1.03125 0  0.9375 1.03125 0  0.96875 1.03125 0  1 1.03125 0  0.03125 1.078125 0  0 1.078125 0  0.0625 1.078125 0  0.09375 1.078125 0  0.125 1.078125 0  0.15625 1.078125 0  0.1875 1.078125 0  0.21875 1.078125 0  0.25 1.078125 0  0.28125 1.078125 0  0.3125 1.078125 0  0.34375 1.078125 0  0.375 1.078125 0  0.40625 1.078125 0  0.4375 1.078125 0  0.46875 1.078125 0  0.5 1.078125 0  0.53125 1.078125 0  0.5625 1.078125 0  0.59375 1.078125 0  0.625 1.078125 0  0.65625 1.078125 0  0.6875 1.078125 0  0.71875 1.078125 0  0.75 1.078125 0  0.78125 1.078125 0  0.8125 1.078125 0  0.84375 1.078125 0  0.875 1.078125 0  0.90625 1.078125 0  0.9375 1.078125 0  0.96875 1.078125 0  1 1.078125 0  0.03125 1.125 0  0 1.125 0  0.0625 1.125 0  0.09375 1.125 0  0.125 1.125 0  0.15625 1.125 0  0.1875 1.125 0  0.21875 1.125 0  0.25 1.125 0  0.28125 1.125 0  0.3125 1.125 0  0.34375 1.125 0  0.375 1.125 0  0.40625 1.125 0  0.4375 1.125 0  0.46875 1.125 0  0.5 1.125 0  0.53125 1.125 0  0.5625 1.125 0  0.59375 1.125 0  0.625 1.125 0  0.65625 1.125 0  0.6875 1.125 0  0.71875 1.125 0  0.75 1.125 0  0.78125 1.125 0  0.8125 1.125 0  0.84375 1.125 0  0.875 1.125 0  0.90625 1.125 0  0.9375 1.125 0  0.96875 1.125 0  1 1.125 0  0.03125 1.171875 0  0 1.171875 0  0.0625 1.171875 0  0.09375 1.171875 0  0.125 1.171875 0  0.15625 1.171875 0  0.1875 1.171875 0  0.21875 1.171875 0  0.25 1.171875 0  0.28125 1.171875 0  0.3125 1.171875 0  0.34375 1.171875 0  0.375 1.171875 0  0.40625 1.171875 0  0.4375 1.171875 0  0.46875 1.171875 0  0.5 1.171875 0  0.53125 1.171875 0  0.5625 1.171875 0  0.59375 1.171875 0  0.625 1.171875 0  0.65625 1.171875 0  0.6875 1.171875 0  0.71875 1.171875 0  0.75 1.171875 0  0.78125 1.171875 0  0.8125 1.171875 0  0.84375 1.171875 0  0.875 1.171875 0  0.90625 1.171875 0  0.9375 1.171875 0  0.96875 1.171875 0  1 1.171875 0  0.03125 1.21875 0  0 1.21875 0  0.0625 1.21875 0  0.09375 1.21875 0  0.125 1.21875 0  0.15625 1.21875 0  0.1875 1.21875 0  0.21875 1.21875 0  0.25 1.21875 0  0.28125 1.21875 0  0.3125 1.21875 0  0.34375 1.21875 0  0.375 1.21875 0  0.40625 1.21875 0  0.4375 1.21875 0  0.46875 1.21875 0  0.5 1.21875 0  0.53125 1.21875 0  0.5
[...]
<PointData  Vectors="u"> 
<DataArray  type="Float64"  Name="u"  NumberOfComponents="3" format="ascii">1.4116547333254990e-02 7.1453451009511281e-04 0.0000000000000000e+00  1.6277766753201191e-02 3.9892774466098119e-03 0.0000000000000000e+00  1.7909330875359463e-02 4.2713717514235409e-03 0.0000000000000000e+00  1.5337622348512756e-02 9.3240933679147593e-04 0.0000000000000000e+00  1.5726648949396235e-02 7.2647776137549410e-03 0.0000000000000000e+00  1.7523935019429223e-02 7.8602673757192359e-03 0.0000000000000000e+00  1.4635663099150261e-02 1.0194234861920885e-02 0.0000000000000000e+00  1.6219131846575505e-02 1.1032139593322179e-02 0.0000000000000000e+00  1.3206518123810183e-02 1.2658217328505701e-02 0.0000000000000000e+00  1.4559072085244809e-02 1.3675524288329192e-02 0.0000000000000000e+00  1.1547208846510580e-02 1.4591024914122395e-02 0.0000000000000000e+00  1.2697030402522591e-02 1.5728865784536049e-02 0.0000000000000000e+00  9.7474243838696940e-03 1.5948382247166909e-02 0.0000000000000000e+00  1.0722108796574044e-02 1.7153813023243369e-02 0.0000000000000000e+00  7.8854550167728188e-03 1.6706247132097649e-02 0.0000000000000000e+00  8.7093044684250342e-03 1.7932402677336971e-02 0.0000000000000000e+00  6.0302655745734105e-03 1.6860524126847340e-02 0.0000000000000000e+00  6.7245910693378109e-03 1.8066123061922741e-02 0.0000000000000000e+00  4.2424649585892033e-03 1.6425847902949629e-02 0.0000000000000000e+00  4.8258398589335347e-03 1.7574785132487586e-02 0.0000000000000000e+00  2.5749055947415296e-03 1.5433957978572704e-02 0.0000000000000000e+00  3.0636334312692721e-03 1.6494887407480948e-02 0.0000000000000000e+00  1.0731893799007192e-03 1.3931748582197475e-02 0.0000000000000000e+00  1.4814701546634577e-03 1.4877809225200470e-02 0.0000000000000000e+00  -2.2396559440007762e-04 1.1979290826826156e-02 0.0000000000000000e+00  1.1632239669791572e-04 1.2787807319807373e-02 0.0000000000000000e+00  -1.2843389244571689e-03 9.6477541292631086e-03 0.0000000000000000e+00  -1.0012045697853442e-03 1.0300067770130124e-02 0.0000000000000000e+00  -2.0819856065028399e-03 7.0174160234681782e-03 0.0000000000000000e+00  -1.8465379379550692e-03 7.4986978923746025e-03 0.0000000000000000e+00  -2.5970312994670463e-03 4.1756379853959648e-03 0.0000000000000000e+00  -2.4010996871404533e-03 4.4748290590690279e-03 0.0000000000000000e+00  -2.8155508399698424e-03 1.2149257545774645e-03 0.0000000000000000e+00  -2.6520927311176729e-03 1.3246795375633379e-03 0.0000000000000000e+00  -2.7295047447009222e-03 -1.7690445916762820e-03 0.0000000000000000e+00  -2.5926043320233703e-03 -1.8522988354662370e-03 0.0000000000000000e+00  -2.3367989355090749e-03 -4.6793738334322352e-03 0.0000000000000000e+00  -2.2216374894906536e-03 -4.9553457000624428e-03 0.0000000000000000e+00  -1.6413764022654668e-03 -7.4199677890200216e-03 0.0000000000000000e+00  -1.5443486036079181e-03 -7.8843134385280633e-03 0.0000000000000000e+00  -6.5338977147512964e-04 -9.8976077592831512e-03 0.0000000000000000e+00  -5.7223409379436347e-04 -1.0541713575697663e-02 0.0000000000000000e+00  6.1056710531578215e-04 -1.2024156228585808e-02 0.0000000000000000e+00  6.7643875129723310e-04 -1.2834834458801800e-02 0.0000000000000000e+00  2.1271582868395743e-03 -1.3718849019305543e-02 0.0000000000000000e+00  2.1762841085670062e-03 -1.4678028578517995e-02 0.0000000000000000e+00  3.8660557915130640e-03 -1.4910748680348763e-02 0.0000000000000000e+00  3.8943059616838721e-03 -1.5995102230419920e-02 0.0000000000000000e+00  5.7896465977742119e-03 -1.5541273134177398e-02 0.0000000000000000e+00  5.7895297639690207e-03 -1.6721865034446410e-02 0.0000000000000000e+00  7.8528069875083775e-03 -1.5566833201609781e-02 0.0000000000000000e+00  7.8124923528268492e-03 -1.6808725252351282e-02 0.0000000000000000e+00  1.0002518589863580e-02 -1.4961465515721396e-02 0.0000000000000000e+00  9.9048533782151449e-03 -1.6223332937145635e-02 0.0000000000000000e+00  1.2176636289235016e-02 -1.3719474429795778e-02 0.0000000000000000e+00  1.1998227747860794e-02 -1.4953122204532595e-02 0.0000000000000000e+00  1.4298275705558644e-02 -1.1858140364306774e-02 0.0000000000000000e+00  1.4010189652748285e-02 -1.3007809404955353e-02 0.0000000000000000e+00  1.6249553380755195e-02 -9.4215318968404720e-03 0.0000000000000000e+00  1.5825257928993464e-02 -1.0422422864178436e-02 0.0000000000000000e+00  1.7752350837911525e-02 -6.4921041087951763e-03 0.0000000000000000e+00  1.7208520172716107e-02 -7.2658963036541895e-03 0.0000000000000000e+00  1.7927356092888695e-02 -3.2625216044086642e-03 0.0000000000000000e+00  1.7459685828946810e-02 -3.6939190919631224e-03 0.0000000000000000e+00  1.5189770749086074e-02 -3.0009066788672524e-04 0.0000000000000000e+00  1.4590259038952962e-02 -4.1159094182164420e-04 0.0000000000000000e+00  1.9809934814600184e-02 5.0660659982097985e-03 0.0000000000000000e+00  1.7170074119930677e-02 1.3983316494290223e-03 0.0000000000000000e+00  1.9304053672400116e-02 9.3116429786571763e-03 0.0000000000000000e+00  1.7925913018233729e-02 1.3010758406501502e-02 0.0000000000000000e+00  1.6157800858074823e-02 1.6036510661676343e-02 0.0000000000000000e+00  1.4169148611182117e-02 1.8340388199607337e-02 0.0000000000000000e+00  1.2062330445172183e-02 1.9897990557286534e-02 0.0000000000000000e+00  9.9186324601753251e-03 2.0704630093461355e-02 0.0000000000000000e+00  7.8081949600134924e-03 2.0774408089027807e-02 0.0000000000000000e+00  5.7925276952205283e-03 2.0138912992160449e-02 0.0000000000000000e+00  3.9246787101449047e-03 1.8845707715031919e-02 0.0000000000000000e+00  2.2502262260038555e-03 1.6956469980768864e-02 0.0000000000000000e+00  8.0733720509844830e-04 1.4545184688941757e-02 0.0000000000000000e+00  -3.7233983211381661e-04 1.1696168396408978e-02 0.0000000000000000e+00  -1.2637440453646424e-03 8.5023027192584304e-03 0.0000000000000000e+00  -1.8477471510627260e-03 5.0631532285205722e-03 0.0000000000000000e+00  -2.1112664186071538e-03 1.4833080214272680e-03 0.0000000000000000e+00  -2.0469696083436342e-03 -2.1294121173062379e-03 0.0000000000000000e+00  -1.6536076005514465e-03 -5.6655986865668849e-03 0.0000000000000000e+00  -9.3599557607987186e-04 -9.0160856724633195e-03 0.0000000000000000e+00  9.4435705355158531e-05 -1.2073748352000788e-02 0.0000000000000000e+00  1.4193533151739780e-03 -1.4735538669873876e-02 0.0000000000000000e+00  3.0127357203775826e-03 -1.6904585692769265e-02 0.0000000000000000e+00  4.8404878735053523e-03 -1.8492548031501969e-02 0.0000000000000000e+00  6.8595673524451620e-03 -1.9422044415919701e-02 0.0000000000000000e+00  9.0175747559933864e-03 -1.9629257749404386e-02 0.0000000000000000e+00  1.1251879612912158e-02 -1.9066492567066402e-02 0.0000000000000000e+00  1.3488544531891068e-02 -1.7704691143159604e-02 0.0000000000000000e+00  1.5637562974165714e-02 -1.5535770837750413e-02 0.0000000000000000e+00  1.7571839578120255e-02 -1.2575576408845494e-02 0.0000000000000000e+00  1.9027951294732694e-02 -8.8736792587217738e-03 0.0000000000000000e+00  1.9187993923702362e-02 -4.5897013901502201e-03 0.0000000000000000e+00  1.5681083104008200e-02 -8.5876806047338410e-04 0.0000000000000000e+00  2.2685110231266230e-02 6.0280145605796703e-03 0.0000000000000000e+00  1.9756369052334796e-02 1.8639514357041060e-03 0.0000000000000000e+00  2.2101052360901697e-02 1.1038553760739403e-02 0.0000000000000000e+00  2.0603559743264423e-02 1.5355117899750730e-02 0.0000000000000000e+00  1.8691773978402569e-02 1.8829432813185176e-02 0.0000000000000000e+00  1.6542707895217064e-02 2.1425436221048099e-02 0.0000000000000000e+00  1.4266327444248196e-02 2.3134872252573688e-02 0.0000000000000000e+00  1.1951830939050181e-02 2.3969297614927616e-02 0.0000000000000000e+00  9.6764752810998833e-03 2.3958309936816410e-02 0.0000000000000000e+00  7.5065959299476055e-03 2.3148130771146028e-02 0.0000000000000000e+00  5.4995373548701468e-03 2.1599901121875445e-02 0.0000000000000000e+00  3.7032760786314288e-03 1.9387938766588651e-02 0.0000000000000000e+00  2.1582136888667653e-03 1.6597819229555798e-02 0.0000000000000000e+00  8.9685091276252705e-04 1.3324680283829932e-02 0.0000000000000000e+00  -5.4679721690689044e-05 9.6714065006165452e-03 0.0000000000000000e+00  -6.7699268179993038e-04 5.7471602490183089e-03 0.0000000000000000e+00  -9.5628547674291107e-04 1.6657382498640409e-03 0.0000000000000000e+00  -8.8493409795040135e-04 -2.4557336699298112e-03 0.0000000000000000e+00  -4.6090594245366161e-04 -6.4983696566047102e-03 0.0000000000000000e+00  3.1141873714238694e-04 -1.0342875868489780e-02 0.0000000000000000e+00  1.4213170828917259e-03 -1.3871248975329502e-02 0.0000000000000000e+00  2.8505465855886473e-03 -1.6968418898507386e-02 0.0000000000000000e+00  4.5730214271327788e-03 -1.9524270664762967e-02 0.0000000000000000e+00  6.5534543164855932e-03 -2.1435740752959880e-02 0.0000000000000000e+00  8.7468794187333596e-03 -2.2609242046142092e-02 0.0000000000000000e+00  1.1097272906709912e-02 -2.2963164826902267e-02 0.0000000000000000e+00  1.3537100000681611e-02 -2.2430527068795371e-02 0.0000000000000000e+00  1.5985285466074681e-02 -2.0961541082418683e-02 0.0000000000000000e+00  1.8342186827647138e-02 -1.8526216853687383e-02 0.0000000000000000e+00  2.0463838333427058e-02 -1.5117987715742548e-02 0.0000000000000000e+00  2.2041764651720162e-02 -1.0767335220635959e-02 0.0000000000000000e+00  2.2093327734264048e-02 -5.6510866174591615e-03 0.0000000000000000e+00  1.7841308985914527e-02 -1.3598281060061238e-03 0.0000000000000000e+00  2.6554646663125979e-02 7.0925759595372615e-03 0.0000000000000000e+00  2.3140845550976272e-02 2.3477532532552342e-03 0.0000000000000000e+00  2.5920444197124221e-02 1.2945328322096885e-02 0.0000000000000000e+00  2.4291605480644147e-02 1.7936539731829456e-02 0.0000000000000000e+00  2.2217219393204240e-02 2.1897489959662841e-02 0.0000000000000000e+00  1.9887449296300135e-02 2.4806470951491313e-02 0.0000000000000000e+00  1.7422550002776253e-02 2.6673524651757641e-02 0.0000000000000000e+00  1.4921071539447602e-02 2.7528900126847951e-02 0.0000000000000000e+00  1.2466778600136572e-02 2.7420285006281315e-02 0.0000000000000000e+00  1.0132145425465639e-02 2.6410966171496152e-02 0.0000000000000000e+00  7.9776667636478754e-03 2.4577886396885847e-02 0.0000000000000000e+00  6.0545162517610315e-03 2.2009752792114715e-02 0.0000000000000000e+00  4.4037546200137462e-03 1.8805193713582979e-02 0.0000000000000000e+00  3.0592242157101430e-03 1.5071028441071567e-02 0.0000000000000000e+00  2.0465670608957268e-03 1.0920820364413466e-02 0.0000000000000000e+00  1.3858446387022565e-03 6.4734380154711753e-03 0.0000000000000000e+00  1.0903984136345123e-03 1.8520209747296299e-03 0.0000000000000000e+00  1.1687743541520044e-03 -2.8172530915226779e-03 0.0000000000000000e+00  1.6232168110927282e-03 -7.4060027753244930e-03 0.0000000000000000e+00  2.4507740886041624e-03 -1.1784889192941257e-02 0.0000000000000000e+00  3.6414555756104764e-03 -1.5824617625439730e-02 0.0000000000000000e+00  5.1784442240004171e-03 -1.9397467833848797e-02 0.0000000000000000e+00  7.0359351077383383e-03 -2.2378807560696969e-02 0.0000000000000000e+00  9.1788498024054400e-03 -2.4649125595378182e-02 0.0000000000000000e+00  1.1560610402313033e-02 -2.6096230957804362e-02 0.0000000000000000e+00  1.4122634995359838e-02 -2.6617838548009282e-02 0.0000000000000000e+00  1.6792379825090898e-02 -2.6124326208592116e-02 0.0000000000000000e+00  1.9481964819296010e-02 -2.4541661219775118e-02 0.0000000000000000e+00  2.2081070797994720e-02 -2.1814599630067627e-02 0.0000000000000000e+00  2.4426569709586711e-02 -1.7911626646488470e-02 0.0000000000000000e+00  2.6155078545177887e-02 -1.2843389885249147e-02 0.0000000000000000e+00  2.6081517539001176e-02 -6.8067632957679921e-03 0.0000000000000000e+00  2.0886880118235241e-02 -1.8581556985623085e-03 0.0000000000000000e+00  3.1464841590423009e-02 8.2556553032821778e-03 0.0000000000000000e+00  2.7365655467099827e-02 2.8712524018857442e-03 0.0000000000000000e+00  3.0808253112109829e-02 1.5022474096723363e-02 0.0000000000000000e+00  2.9044177521649485e-02 2.0740395613487183e-02 0.0000000000000000e+00  2.6801271453202331e-02 2.5220465822968809e-02 0.0000000000000000e+00  2.4289052210411263e-02 2.8457210043885007e-02 0.0000000000000000e+00  2.1639766038011547e-02 3.0481831502819245e-02 0.0000000000000000e+00  1.8960013152935409e-02 3.1346282607146093e-02 0.0000000000000000e+00  1.6340852958798089e-02 3.1119459595468545e-02 0.0000000000000000e+00  1.3858312722019567e-02 2.9884520006457412e-02 0.0000000000000000e+00  1.1576427577361612e-02 2.7736700183411969e-02 0.0000000000000000e+00  9.5463271166685761e-03 2.4781026199849041e-02 0.0000000000000000e+00  7.8101092205287168e-03 2.1130545733205303e-02 0.0000000000000000e+00  6.3996219799423385e-03 1.6904602710397211e-02 0.0000000000000000e+00  5.3406440402001898e-03 1.2227641038231893e-02 0.0000000000000000e+00  4.6510283302851245e-03 7.2281777106845075e-03 0.0000000000000000e+00  4.3447156314085312e-03 2.0380603042062118e-03 0.0000000000000000e+00  4.4291803734279331e-03 -3.2080038561182068e-03 0.0000000000000000e+00  4.9084779310008724e-03 -8.3730203607481676e-03 0.0000000000000000e+00  5.7802438245537257e-03 -1.3318008587961982e-02 0.0000000000000000e+00  7.0374154240696735e-03 -1.7902777762429604e-02 0.0000000000000000e+00  8.6648719692425068e-03 -2.1986595564252091e-02 0.0000000000000000e+00  1.0639755047221849e-02 -2.5429530895327696e-02 0.0000000000000000e+00  1.2928181275354328e-02 -2.8093968748800054e-02 0.0000000000000000e+00  1.5484688200074271e-02 -2.9846778166291145e-02 0.0000000000000000e+00  1.8249298802173537e-02 -3.0561873941609325e-02 0.0000000000000000e+00  2.1146675940924359e-02 -3.0123263903165588e-02 0.0000000000000000e+00  2.4082764090309364e-02 -2.8428536946969604e-02 0.0000000000000000e+00  2.6937291824016704e-02 -2.5392960312899237e-02 0.0000000000000000e+00  2.9525667004240731e-02 -2.0956192147928807e-02 0.0000000000000000e+00  3.1419494547506199e-02 -1.5106128809362877e-02 0.0000000000000000e+00  3.1185813913905722e-02 -8.0602706647994026e-03 0.0000000000000000e+00  2.4807962024695079e-02 -2.3729747854817312e-03 0.0000000000000000e+00  3.7508801687160497e-02 9.5176115294536134e-03 0.0000000000000000e+00  3.2504480121239035e-02 3.4512800570557708e-03 0.0000000000000000e+00  3.6862588844442046e-02 1.7266284529413051e-02 0.0000000000000000e+00  3.4968821190120229e-02 2.3757433752265304e-02 0.0000000000000000e+00  3.2565284494321584e-02 2.8781284889634447e-02 0.0000000000000000e+00  2.9887766435253354e-02 3.2351822477035656e-02 0.0000000000000000e+00  2.7080288164803505e-02 3.4525180345152860e-02 0.0000000000000000e+00  2.4257708432896090e-02 3.5379119654473101e-02 0.0000000000000000e+00  2.1515298764599001e-02 3.5007529508785766e-02 0.0000000000000000e+00  1.8931977321450424e-02 3.3517003487645462e-02 0.0000000000000000e+00  1.6570846965097134e-02 3.1023805647239909e-02 0.0000000000000000e+00  1.4482422574944148e-02 2.7651501561505240e-02 0.0000000000000000e+00  1.2704708047802060e-02 2.3528767424742171e-02 0.0000000000000000e+00  1.1267791372139832e-02 1.8788101305116451e-02 0.0000000000000000e+00  1.0192580036847565e-02 1.3564607583304585e-02 0.0000000000000000e+00  9.4961303967804143e-03 7.9957282737211886e-03 0.0000000000000000e+00  9.1888359913178692e-03 2.2208726332471527e-03 0.0000000000000000e+00  9.2796067776908867e-03 -3.6182260553675105e-03 0.0000000000000000e+00  9.7716066077739271e-03 -9.3773386230477113e-03 0.0000000000000000e+00  1.0666365066135436e-02 -1.4909340029440372e-02 0.0000000000000000e+00  1.1958890529871015e-02 -2.0063989323834755e-02 0.0000000000000000e+00  1.3639635431314967e-02 -2.4688100861914967e-02 0.0000000000000000e+00  1.5689638440683142e-02 -2.8625970804233528e-02 0.0000000000000000e+00  1.8080422133877533e-02 -3.1720646716383923e-02 0.0000000000000000e+00  2.0769769336921484e-02 -3.3815665028165916e-02 0.0000000000000000e+00  2.3700296080727778e-02 -3.4757738216740219e-02 0.0000000000000000e+00  2.6796173527457074e-02 -3.4400103553026695e-02 0.0000000000000000e+00  2.9960048675622034e-02 -3.2606749377976404e-02 0.0000000000000000e+00  3.3062579232799295e-02 -2.9257732958876043e-02 0.0000000000000000e+00  3.5896435449781668e-02 -2.4257987712065002e-02 0.0000000000000000e+00  3.7956489320513244e-02 -1.7567392565830463e-02 0.0000000000000000e+00  3.7509512322758322e-02 -9.4233964193766867e-03 0.0000000000000000e+00  2.9663421659214977e-02 -2.9289511161235409e-03 0.0000000000000000e+00  4.4816556095793929e-02 1.0874238444624306e-02 0.0000000000000000e+00  3.8657810746666563e-02 4.1014224109628449e-03 0.0000000000000000e+00  4.4222577808284376e-02 1.9664143479047456e-02 0.0000000000000000e+00  4.2215079552410405e-02 2.6963233737011951e-02 0.0000000000000000e+00  3.9674384457300309e-02 3.2541152317289879e-02 0.0000000000000000e+00  3.6868637736951725e-02 3.6436223595682798e-02 0.0000000000000000e+00  3.3954366881391335e-02 3.8735032734806614e-02 0.0000000000000000e+00  3.1052588440332228e-02 3.9546628678531516e-02 0.0000000000000000e+00  2.8260626554676496e-02 3.8994955021445787e-02 0.0000000000000000e+00  2.5655788812021321e-02 3.7214276556817673e-02 0.0000000000000000e+00  2.3297500301969323e-02 3.4345269502665754e-02 0.0000000000000000e+00  2.1229772176348548e-02 3.0532151008412715e-02 0.0000000000000000e+00  1.9484653823470241e-02 2.5920478554724517e-02 0.0000000000000000e+00  1.8084015322106593e-02 2.0655783286746814e-02 0.0000000000000000e+00  1.7044019265659467e-02 1.4883157059559515e-02 0.0000000000000000e+00  1.6374731365975233e-02 8.7471150524984290e-03 0.0000000000000000e+00  1.6085483249389326e-02 2.3926314126635827e-03 0.0000000000000000e+00  1.6181651712223983e-02 -4.0342267354747741e-03 0.0000000000000000e+00  1.6669856027866949e-02 -1.0384509755101756e-02 0.0000000000000000e+00  1.7552643304020524e-02 -1.6505451215006964e-02 0.0000000000000000e+00  1.8832347505999013e-02 -2.2238878549176711e-02 0.0000000000000000e+00  2.0504849208541703e-02 -2.7420466205896683e-02 0.0000000000000000e+00  2.2560697284335365e-02 -3.1879336342461644e-02 0.0000000000000000e+00  2.4979346886535796e-02 -3.5438349272719126e-02 0.0000000000000000e+00  2.7727544377822017e-02 -3.7915669598221610e-02 0.0000000000000000e+00  3.0754561352517695e-02 -3.9127077871649561e-02 0.0000000000000000e+00  3.3989166149362669e-02 -3.8889896526172058e-02 0.0000000000000000e+00  3.7334391513522587e-02 -3.7027903854462259e-02 0.0000000000000000e+00  4.0654554846719190e-02 -3.3378255578405180e-02 0.0000000000000000e+00  4.3718612247557138e-02 -2.7802779241613378e-02 0.0000000000000000e+00  4.5932024600814046e-02 -2.0225267482995715e-02 0.0000000000000000e+00  4.5200630073497422e-02 -1.0900765751668933e-02 0.0000000000000000e+00  3.5551699771058078e-02 -3.5458893049553526e-03 0.0000000000000000e+00  5.3548622531340843e-02 1.2314940262242533e-02 0.0000000000000000e+00  4.5947691526109356e-02 4.8334536207894031e-03 0.0000000000000000e+00  5.3059819548686105e-02 2.2190088121320738e-02 0.0000000000000000e+00  5.0966686152084321e-02 3.0312140998172223e-02 0.0000000000000000e+00  4.8329942737080155e-02 3.6431801224985030e-02 0.0000000000000000e+00  4.5456827757477739e-02 4.0618938244592305e-02 0.0000000000000000e+00  4.2516330499630446e-02 4.2998587680886394e-02 0.0000000000000000e+00  3.9632921978236875e-02 4.3718505224346525e-02 0.0000000000000000e+00  3.6901723526106538e-02 4.2939424309855319e-02 0.0000000000000000e+00  3.4393425446092606e-02 4.0828491764898174e-02 0.0000000000000000e+00  3.2157689711718840e-02 3.7554715334096996e-02 0.0000000000000000e+00  3.0226960945771451e-02 3.3285135474518016e-02 0.0000000000000000e+00  2.8620651247646716e-02 2.8182895325900660e-02 0.0000000000000000e+00  2.7349153166725607e-02 2.2405935627234860e-02 0.0000000000000000e+00  2.6417251156055904e-02 1.6107269872978495e-02 0.0000000000000000e+00  2.5827688208882250e-02 9.4358991908703692e-03 0.0000000000000000e+00  2.5582680338256853e-02 2.5384328774041968e-03 0.0000000000000000e+00  2.5687003803560350e-02 -4.4383471471083633e-03 0.0000000000000000e+00  