<?xml version="1.0"?>
<VTKFile type="UnstructuredGrid"  version="0.1"  >
<UnstructuredGrid>
<Piece  NumberOfPoints="759" NumberOfCells="1408">
<Points>
<DataArray  type="Float64"  NumberOfComponents="3"  format="ascii">0 0.46875 0  0.03125 0.46875 0  0.03125 0.515625 0  0 0.515625 0  0.0625 0.46875 0  0.0625 0.515625 0  0.09375 0.46875 0  0.09375 0.515625 0  0.125 0.46875 0  0.125 0.515625 0  0.15625 0.46875 0  0.15625 0.515625 0  0.1875 0.46875 0  0.1875 0.515625 0  0.21875 0.46875 0  0.21875 0.515625 0  0.25 0.46875 0  0.25 0.515625 0  0.28125 0.46875 0  0.28125 0.515625 0  0.3125 0.46875 0  0.3125 0.515625 0  0.34375 0.46875 0  0.34375 0.515625 0  0.375 0.46875 0  0.375 0.515625 0  0.40625 0.46875 0  0.40625 0.515625 0  0.4375 0.46875 0  0.4375 0.515625 0  0.46875 0.46875 0  0.46875 0.515625 0  0.5 0.46875 0  0.5 0.515625 0  0.53125 0.46875 0  0.53125 0.515625 0  0.5625 0.46875 0  0.5625 0.515625 0  0.59375 0.46875 0  0.59375 0.515625 0  0.625 0.46875 0  0.625 0.515625 0  0.65625 0.46875 0  0.65625 0.515625 0  0.6875 0.46875 0  0.6875 0.515625 0  0.71875 0.46875 0  0.71875 0.515625 0  0.75 0.46875 0  0.75 0.515625 0  0.78125 0.46875 0  0.78125 0.515625 0  0.8125 0.46875 0  0.8125 0.515625 0  0.84375 0.46875 0  0.84375 0.515625 0  0.875 0.46875 0  0.875 0.515625 0  0.90625 0.46875 0  0.90625 0.515625 0  0.9375 0.46875 0  0.9375 0.515625 0  0.96875 0.46875 0  0.96875 0.515625 0  1 0.46875 0  1 0.515625 0  0.03125 0.5625 0  0 0.5625 0  0.0625 0.5625 0  0.09375 0.5625 0  0.125 0.5625 0  0.15625 0.5625 0  0.1875 0.5625 0  0.21875 0.5625 0  0.25 0.5625 0  0.28125 0.5625 0  0.3125 0.5625 0  0.34375 0.5625 0  0.375 0.5625 0  0.40625 0.5625 0  0.4375 0.5625 0  0.46875 0.5625 0  0.5 0.5625 0  0.53125 0.5625 0  0.5625 0.5625 0  0.59375 0.5625 0  0.625 0.5625 0  0.65625 0.5625 0  0.6875 0.5625 0  0.71875 0.5625 0  0.75 0.5625 0  0.78125 0.5625 0  0.8125 0.5625 0  0.84375 0.5625 0  0.875 0.5625 0  0.90625 0.5625 0  0.9375 0.5625 0  0.96875 0.5625 0  1 0.5625 0  0.03125 0.609375 0  0 0.609375 0  0.0625 0.609375 0  0.09375 0.609375 0  0.125 0.609375 0  0.15625 0.609375 0  0.1875 0.609375 0  0.21875 0.609375 0  0.25 0.609375 0  0.28125 0.609375 0  0.3125 0.609375 0  0.34375 0.609375 0  0.375 0.609375 0  0.40625 0.609375 0  0.4375 0.609375 0  0.46875 0.609375 0  0.5 0.609375 0  0.53125 0.609375 0  0.5625 0.609375 0  0.59375 0.609375 0  0.625 0.609375 0  0.65625 0.609375 0  0.6875 0.609375 0  0.71875 0.609375 0  0.75 0.609375 0  0.78125 0.609375 0  0.8125 0.609375 0  0.84375 0.609375 0  0.875 0.609375 0  0.90625 0.609375 0  0.9375 0.609375 0  0.96875 0.609375 0  1 0.609375 0  0.03125 0.65625 0  0 0.65625 0  0.0625 0.65625 0  0.09375 0.65625 0  0.125 0.65625 0  0.15625 0.65625 0  0.1875 0.65625 0  0.21875 0.65625 0  0.25 0.65625 0  0.28125 0.65625 0  0.3125 0.65625 0  0.34375 0.65625 0  0.375 0.65625 0  0.40625 0.65625 0  0.4375 0.65625 0  0.46875 0.65625 0  0.5 0.65625 0  0.53125 0.65625 0  0.5625 0.65625 0  0.59375 0.65625 0  0.625 0.65625 0  0.65625 0.65625 0  0.6875 0.65625 0  0.71875 0.65625 0  0.75 0.65625 0  0.78125 0.65625 0  0.8125 0.65625 0  0.84375 0.65625 0  0.875 0.65625 0  0.90625 0.65625 0  0.9375 0.65625 0  0.96875 0.65625 0  1 0.65625 0  0.03125 0.703125 0  0 0.703125 0  0.0625 0.703125 0  0.09375 0.703125 0  0.125 0.703125 0  0.15625 0.703125 0  0.1875 0.703125 0  0.21875 0.703125 0  0.25 0.703125 0  0.28125 0.703125 0  0.3125 0.703125 0  0.34375 0.703125 0  0.375 0.703125 0  0.40625 0.703125 0  0.4375 0.703125 0  0.46875 0.703125 0  0.5 0.703125 0  0.53125 0.703125 0  0.5625 0.703125 0  0.59375 0.703125 0  0.625 0.703125 0  0.65625 0.703125 0  0.6875 0.703125 0  0.71875 0.703125 0  0.75 0.703125 0  0.78125 0.703125 0  0.8125 0.703125 0  0.84375 0.703125 0  0.875 0.703125 0  0.90625 0.703125 0  0.9375 0.703125 0  0.96875 0.703125 0  1 0.703125 0  0.03125 0.75 0  0 0.75 0  0.0625 0.75 0  0.09375 0.75 0  0.125 0.75 0  0.15625 0.75 0  0.1875 0.75 0  0.21875 0.75 0  0.25 0.75 0  0.28125 0.75 0  0.3125 0.75 0  0.34375 0.75 0  0.375 0.75 0  0.40625 0.75 0  0.4375 0.75 0  0.46875 0.75 0  0.5 0.75 0  0.53125 0.75 0  0.5625 0.75 0  0.59375 0.75 0  0.625 0.75 0  0.65625 0.75 0  0.6875 0.75 0  0.71875 0.75 0  0.75 0.75 0  0.78125 0.75 0  0.8125 0.75 0  0.84375 0.75 0  0.875 0.75 0  0.90625 0.75 0  0.9375 0.75 0  0.96875 0.75 0  1 0.75 0  0.03125 0.796875 0  0 0.796875 0  0.0625 0.796875 0  0.09375 0.796875 0  0.125 0.796875 0  0.15625 0.796875 0  0.1875 0.796875 0  0.21875 0.796875 0  0.25 0.796875 0  0.28125 0.796875 0  0.3125 0.796875 0  0.34375 0.796875 0  0.375 0.796875 0  0.40625 0.796875 0  0.4375 0.796875 0  0.46875 0.796875 0  0.5 0.796875 0  0.53125 0.796875 0  0.5625 0.796875 0  0.59375 0.796875 0  0.625 0.796875 0  0.65625 0.796875 0  0.6875 0.796875 0  0.71875 0.796875 0  0.75 0.796875 0  0.78125 0.796875 0  0.8125 0.796875 0  0.84375 0.796875 0  0.875 0.796875 0  0.90625 0.796875 0  0.9375 0.796875 0  0.96875 0.796875 0  1 0.796875 0  0.03125 0.84375 0  0 0.84375 0  0.0625 0.84375 0  0.09375 0.84375 0  0.125 0.84375 0  0.15625 0.84375 0  0.1875 0.84375 0  0.21875 0.84375 0  0.25 0.84375 0  0.28125 0.84375 0  0.3125 0.84375 0  0.34375 0.84375 0  0.375 0.84375 0  0.40625 0.84375 0  0.4375 0.84375 0  0.46875 0.84375 0  0.5 0.84375 0  0.53125 0.84375 0  0.5625 0.84375 0  0.59375 0.84375 0  0.625 0.84375 0  0.65625 0.84375 0  0.6875 0.84375 0  0.71875 0.84375 0  0.75 0.84375 0  0.78125 0.84375 0  0.8125 0.84375 0  0.84375 0.84375 0  0.875 0.84375 0  0.90625 0.84375 0  0.9375 0.84375 0  0.96875 0.84375 0  1 0.84375 0  0.03125 0.890625 0  0 0.890625 0  0.0625 0.890625 0  0.09375 0.890625 0  0.125 0.890625 0  0.15625 0.890625 0  0.1875 0.890625 0  0.21875 0.890625 0  0.25 0.890625 0  0.28125 0.890625 0  0.3125 0.890625 0  0.34375 0.890625 0  0.375 0.890625 0  0.40625 0.890625 0  0.4375 0.890625 0  0.46875 0.890625 0  0.5 0.890625 0  0.53125 0.890625 0  0.5625 0.890625 0  0.59375 0.890625 0  0.625 0.890625 0  0.65625 0.890625 0  0.6875 0.890625 0  0.71875 0.890625 0  0.75 0.890625 0  0.78125 0.890625 0  0.8125 0.890625 0  0.84375 0.890625 0  0.875 0.890625 0  0.90625 0.890625 0  0.9375 0.890625 0  0.96875 0.890625 0  1 0.890625 0  0.03125 0.9375 0  0 0.9375 0  0.0625 0.9375 0  0.09375 0.9375 0  0.125 0.9375 0  0.15625 0.9375 0  0.1875 0.9375 0  0.21875 0.9375 0  0.25 0.9375 0  0.28125 0.9375 0  0.3125 0.9375 0  0.34375 0.9375 0  0.375 0.9375 0  0.40625 0.9375 0  0.4375 0.9375 0  0.46875 0.9375 0  0.5 0.9375 0  0.53125 0.9375 0  0.5625 0.9375 0  0.59375 0.9375 0  0.625 0.9375 0  0.65625 0.9375 0  0.6875 0.9375 0  0.71875 0.9375 0  0.75 0.9375 0  0.78125 0.9375 0  0.8125 0.9375 0  0.84375 0.9375 0  0.875 0.9375 0  0.90625 0.9375 0  0.9375 0.9375 0  0.96875 0.9375 0  1 0.9375 0  0.03125 0.984375 0  0 0.984375 0  0.0625 0.984375 0  0.09375 0.984375 0  0.125 0.984375 0  0.15625 0.984375 0  0.1875 0.984375 0  0.21875 0.984375 0  0.25 0.984375 0  0.28125 0.984375 0  0.3125 0.984375 0  0.34375 0.984375 0  0.375 0.984375 0  0.40625 0.984375 0  0.4375 0.984375 0  0.46875 0.984375 0  0.5 0.984375 0  0.53125 0.984375 0  0.5625 0.984375 0  0.59375 0.984375 0  0.625 0.984375 0  0.65625 0.984375 0  0.6875 0.984375 0  0.71875 0.984375 0  0.75 0.984375 0  0.78125 0.984375 0  0.8125 0.984375 0  0.84375 0.984375 0  0.875 0.984375 0  0.90625 0.984375 0  0.9375 0.984375 0  0.96875 0.984375 0  1 0.984375 0  0.03125 1.03125 0  0 1.03125 0  0.0625 1.03125 0  0.09375 1.03125 0  0.125 1.03125 0  0.15625 1.03125 0  0.1875 1.03125 0  0.21875 1.03125 0  0.25 1.03125 0  0.28125 1.03125 0  0.3125 1.03125 0  0.34375 1.03125 0  0.375 1.03125 0  0.40625 1.03125 0  0.4375 1.03125 0  0.46875 1.03125 0  0.5 1.03125 0  0.53125 1.03125 0  0.5625 1.03125 0  0.59375 1.03125 0  0.625 1.03125 0  0.65625 1.03125 0  0.6875 1.03125 0  0.71875 1.03125 0  0.75 1.03125 0  0.78125 1.03125 0  0.8125 1.03125 0  0.84375 1.03125 0  0.875 1.03125 0  0.90625 1.03125 0  0.9375 1.03125 0  0.96875 1.03125 0  1 1.03125 0  0.03125 1.078125 0  0 1.078125 0  0.0625 1.078125 0  0.09375 1.078125 0  0.125 1.078125 0  0.15625 1.078125 0  0.1875 1.078125 0  0.21875 1.078125 0  0.25 1.078125 0  0.28125 1.078125 0  0.3125 1.078125 0  0.34375 1.078125 0  0.375 1.078125 0  0.40625 1.078125 0  0.4375 1.078125 0  0.46875 1.078125 0  0.5 1.078125 0  0.53125 1.078125 0  0.5625 1.078125 0  0.59375 1.078125 0  0.625 1.078125 0  0.65625 1.078125 0  0.6875 1.078125 0  0.71875 1.078125 0  0.75 1.078125 0  0.78125 1.078125 0  0.8125 1.078125 0  0.84375 1.078125 0  0.875 1.078125 0  0.90625 1.078125 0  0.9375 1.078125 0  0.96875 1.078125 0  1 1.078125 0  0.03125 1.125 0  0 1.125 0  0.0625 1.125 0  0.09375 1.125 0  0.125 1.125 0  0.15625 1.125 0  0.1875 1.125 0  0.21875 1.125 0  0.25 1.125 0  0.28125 1.125 0  0.3125 1.125 0  0.34375 1.125 0  0.375 1.125 0  0.40625 1.125 0  0.4375 1.125 0  0.46875 1.125 0  0.5 1.125 0  0.53125 1.125 0  0.5625 1.125 0  0.59375 1.125 0  0.625 1.125 0  0.65625 1.125 0  0.6875 1.125 0  0.71875 1.125 0  0.75 1.125 0  0.78125 1.125 0  0.8125 1.125 0  0.84375 1.125 0  0.875 1.125 0  0.90625 1.125 0  0.9375 1.125 0  0.96875 1.125 0  1 1.125 0  0.03125 1.171875 0  0 1.171875 0  0.0625 1.171875 0  0.09375 1.171875 0  0.125 1.171875 0  0.15625 1.171875 0  0.1875 1.171875 0  0.21875 1.171875 0  0.25 1.171875 0  0.28125 1.171875 0  0.3125 1.171875 0  0.34375 1.171875 0  0.375 1.171875 0  0.40625 1.171875 0  0.4375 1.171875 0  0.46875 1.171875 0  0.5 1.171875 0  0.53125 1.171875 0  0.5625 1.171875 0  0.59375 1.171875 0  0.625 1.171875 0  0.65625 1.171875 0  0.6875 1.171875 0  0.71875 1.171875 0  0.75 1.171875 0  0.78125 1.171875 0  0.8125 1.171875 0  0.84375 1.171875 0  0.875 1.171875 0  0.90625 1.171875 0  0.9375 1.171875 0  0.96875 1.171875 0  1 1.171875 0  0.03125 1.21875 0  0 1.21875 0  0.0625 1.21875 0  0.09375 1.21875 0  0.125 1.21875 0  0.15625 1.21875 0  0.1875 1.21875 0  0.21875 1.21875 0  0.25 1.21875 0  0.28125 1.21875 0  0.3125 1.21875 0  0.34375 1.21875 0  0.375 1.21875 0  0.40625 1.21875 0  0.4375 1.21875 0  0.46875 1.21875 0  0.5 1.21875 0  0.53125 1.21875 0  0.5
[...]
<PointData  Vectors="u"> 
<DataArray  type="Float64"  Name="u"  NumberOfComponents="3" format="ascii">1.4116524282828287e-02 7.1453331332944577e-04 0.0000000000000000e+00  1.6277740933723178e-02 3.9893050766128474e-03 0.0000000000000000e+00  1.7909302591291244e-02 4.2713988980626599e-03 0.0000000000000000e+00  1.5337597368130588e-02 9.3240783609899517e-04 0.0000000000000000e+00  1.5726624235621413e-02 7.2648338070214272e-03 0.0000000000000000e+00  1.7523907629753182e-02 7.8603225050661776e-03 0.0000000000000000e+00  1.4635640441448531e-02 1.0194319616583949e-02 0.0000000000000000e+00  1.6219106794948979e-02 1.1032222804843702e-02 0.0000000000000000e+00  1.3206498200718789e-02 1.2658330514643316e-02 0.0000000000000000e+00  1.4559050076675279e-02 1.3675635532465123e-02 0.0000000000000000e+00  1.1547192207297564e-02 1.4591166194725218e-02 0.0000000000000000e+00  1.2697011949841167e-02 1.5729004795020443e-02 0.0000000000000000e+00  9.7474114762454538e-03 1.5948551055020164e-02 0.0000000000000000e+00  1.0722094311178647e-02 1.7153979293873484e-02 0.0000000000000000e+00  7.8854462020095106e-03 1.6706442650597345e-02 0.0000000000000000e+00  8.7092942804107096e-03 1.7932595444523573e-02 0.0000000000000000e+00  6.0302611377472748e-03 1.6860745273110125e-02 0.0000000000000000e+00  6.7245854379705348e-03 1.8066341290024074e-02 0.0000000000000000e+00  4.2424651160962263e-03 1.6426093314698225e-02 0.0000000000000000e+00  4.8258389795879106e-03 1.7575027502348187e-02 0.0000000000000000e+00  2.5749104999613398e-03 1.5434226005634193e-02 0.0000000000000000e+00  3.0636374402599601e-03 1.6495152309035623e-02 0.0000000000000000e+00  1.0731991276777409e-03 1.3932037283138094e-02 0.0000000000000000e+00  1.4814791328819487e-03 1.4878094754792738e-02 0.0000000000000000e+00  -2.2395096402100842e-04 1.1979597971016621e-02 0.0000000000000000e+00  1.1633637246382891e-04 1.2788111282622113e-02 0.0000000000000000e+00  -1.2843194229131133e-03 9.6480772045614491e-03 0.0000000000000000e+00  -1.0011856182444397e-03 1.0300387687996590e-02 0.0000000000000000e+00  -2.0819612934422542e-03 7.0177522496181850e-03 0.0000000000000000e+00  -1.8465140800099711e-03 7.4990310171132151e-03 0.0000000000000000e+00  -2.5970022792722700e-03 4.1759843331405817e-03 0.0000000000000000e+00  -2.4010710370470359e-03 4.4751723914077035e-03 0.0000000000000000e+00  -2.8155172579279685e-03 1.2152789703878803e-03 0.0000000000000000e+00  -2.6520594449739123e-03 1.3250298515786144e-03 0.0000000000000000e+00  -2.7294667826224129e-03 -1.7686879554156243e-03 0.0000000000000000e+00  -2.5925666042064055e-03 -1.8519449625141720e-03 0.0000000000000000e+00  -2.3367568066367142e-03 -4.6790173830437987e-03 0.0000000000000000e+00  -2.2215955484719101e-03 -4.9549918527200185e-03 0.0000000000000000e+00  -1.6413303453706744e-03 -7.4196152493018865e-03 0.0000000000000000e+00  -1.5443027071450049e-03 -7.8839633232960834e-03 0.0000000000000000e+00  -6.5334004395357264e-04 -9.8972629288704532e-03 0.0000000000000000e+00  -5.7218452340783541e-04 -1.0541370976736013e-02 0.0000000000000000e+00  6.1062023548951112e-04 -1.2023822931430771e-02 0.0000000000000000e+00  6.7649169658764855e-04 -1.2834503189700402e-02 0.0000000000000000e+00  2.1272145505508498e-03 -1.3718531052902574e-02 0.0000000000000000e+00  2.1763401192555010e-03 -1.4677712430743275e-02 0.0000000000000000e+00  3.8661149297201250e-03 -1.4910449761477597e-02 0.0000000000000000e+00  3.8943647256870061e-03 -1.5994804919178957e-02 0.0000000000000000e+00  5.7897083747612751e-03 -1.5540996843034789e-02 0.0000000000000000e+00  5.7895909753167491e-03 -1.6721590142820920e-02 0.0000000000000000e+00  7.8528712068101168e-03 -1.5566582925363993e-02 0.0000000000000000e+00  7.8125557213140750e-03 -1.6808476174716782e-02 0.0000000000000000e+00  1.0002585113168884e-02 -1.4961244392787591e-02 0.0000000000000000e+00  9.9049186398641308e-03 -1.6223112823071477e-02 0.0000000000000000e+00  1.2176705056360648e-02 -1.3719285296465752e-02 0.0000000000000000e+00  1.1998294674575928e-02 -1.4952933904621230e-02 0.0000000000000000e+00  1.4298346741523997e-02 -1.1857985706207767e-02 0.0000000000000000e+00  1.4010258052291032e-02 -1.3007655420509818e-02 0.0000000000000000e+00  1.6249626708570986e-02 -9.4214138095839554e-03 0.0000000000000000e+00  1.5825327584860920e-02 -1.0422305303458463e-02 0.0000000000000000e+00  1.7752425860821465e-02 -6.4920242773266086e-03 0.0000000000000000e+00  1.7208590463298753e-02 -7.2658168494011740e-03 0.0000000000000000e+00  1.7927428559762679e-02 -3.2624813246470673e-03 0.0000000000000000e+00  1.7459753844755389e-02 -3.6938789835793549e-03 0.0000000000000000e+00  1.5189827766118684e-02 -3.0009057218171003e-04 0.0000000000000000e+00  1.4590312400411566e-02 -4.1159092214290867e-04 0.0000000000000000e+00  1.9809903325935064e-02 5.0660918354202850e-03 0.0000000000000000e+00  1.7170046211626672e-02 1.3983295428430693e-03 0.0000000000000000e+00  1.9304023149270454e-02 9.3116956054616860e-03 0.0000000000000000e+00  1.7925884814048235e-02 1.3010838096623675e-02 0.0000000000000000e+00  1.6157775716417397e-02 1.6036617541599574e-02 0.0000000000000000e+00  1.4169127075810887e-02 1.8340522151781107e-02 0.0000000000000000e+00  1.2062312949349322e-02 1.9898151202597379e-02 0.0000000000000000e+00  9.9186193544480369e-03 2.0704816779350262e-02 0.0000000000000000e+00  7.8081865235432322e-03 2.0774619879021999e-02 0.0000000000000000e+00  5.7925241423825383e-03 2.0139148657602374e-02 0.0000000000000000e+00  3.9246801950460850e-03 1.8845965729978501e-02 0.0000000000000000e+00  2.2502328457602106e-03 1.6956748520834529e-02 0.0000000000000000e+00  8.0734900233534336e-04 1.4545481634620204e-02 0.0000000000000000e+00  -3.7232286714032842e-04 1.1696481341289691e-02 0.0000000000000000e+00  -1.2637219726003000e-03 8.5026289833828490e-03 0.0000000000000000e+00  -1.8477200782772633e-03 5.0634898770216697e-03 0.0000000000000000e+00  -2.1112344986240835e-03 1.4836518884561178e-03 0.0000000000000000e+00  -2.0469330357080328e-03 -2.1290643993994397e-03 0.0000000000000000e+00  -1.6535666075002131e-03 -5.6652506529897232e-03 0.0000000000000000e+00  -9.3595042782250936e-04 -9.0157409869323704e-03 0.0000000000000000e+00  9.4484716153045474e-05 -1.2073410763252770e-02 0.0000000000000000e+00  1.4194058747227663e-03 -1.4735211964172469e-02 0.0000000000000000e+00  3.0127915008701803e-03 -1.6904273642997202e-02 0.0000000000000000e+00  4.8405465411275900e-03 -1.8492254343523584e-02 0.0000000000000000e+00  6.8596285761182759e-03 -1.9421772672995889e-02 0.0000000000000000e+00  9.0176382168535105e-03 -1.9629011355620101e-02 0.0000000000000000e+00  1.1251945014391425e-02 -1.9066274690869998e-02 0.0000000000000000e+00  1.3488611608677982e-02 -1.7704504662141386e-02 0.0000000000000000e+00  1.5637631492023771e-02 -1.5535618285975902e-02 0.0000000000000000e+00  1.7571909279230555e-02 -1.2575459927931012e-02 0.0000000000000000e+00  1.9028021549193277e-02 -8.8736005532362838e-03 0.0000000000000000e+00  1.9188061898638316e-02 -4.5896616864484468e-03 0.0000000000000000e+00  1.5681136114693500e-02 -8.5876813948603599e-04 0.0000000000000000e+00  2.2685074186064060e-02 6.0280389464887471e-03 0.0000000000000000e+00  1.9756337283686913e-02 1.8639488715438803e-03 0.0000000000000000e+00  2.2101017200663754e-02 1.1038603632109276e-02 0.0000000000000000e+00  2.0603526872445370e-02 1.5355193698785595e-02 0.0000000000000000e+00  1.8691744162505668e-02 1.8829534847229955e-02 0.0000000000000000e+00  1.6542681705805976e-02 2.1425564530945702e-02 0.0000000000000000e+00  1.4266305347986065e-02 2.3135026596483633e-02 0.0000000000000000e+00  1.1951813320867161e-02 2.3969477461323465e-02 0.0000000000000000e+00  9.6764624544634255e-03 2.3958514458338121e-02 0.0000000000000000e+00  7.5065881427830664e-03 2.3148358839643474e-02 0.0000000000000000e+00  5.4995347932983753e-03 2.1600151305714705e-02 0.0000000000000000e+00  3.7032788696212782e-03 1.9388209331101771e-02 0.0000000000000000e+00  2.1582219020740041e-03 1.6598108141331062e-02 0.0000000000000000e+00  8.9686456210947023e-04 1.3324985219333594e-02 0.0000000000000000e+00  -5.4660676429362903e-05 9.6717248595424195e-03 0.0000000000000000e+00  -6.7696833310414010e-04 5.7474891725406525e-03 0.0000000000000000e+00  -9.5625596701885121e-04 1.6660746439412402e-03 0.0000000000000000e+00  -8.8489961653652276e-04 -2.4553931062302444e-03 0.0000000000000000e+00  -4.6086672186641483e-04 -6.4980283978282030e-03 0.0000000000000000e+00  3.1146242585024882e-04 -1.0342537524802934e-02 0.0000000000000000e+00  1.4213649356519783e-03 -1.3870917250074813e-02 0.0000000000000000e+00  2.8505982718296970e-03 -1.6968097541722731e-02 0.0000000000000000e+00  4.5730765972170247e-03 -1.9523963423125928e-02 0.0000000000000000e+00  6.5535126101798850e-03 -2.1435451316827059e-02 0.0000000000000000e+00  8.7469404744612775e-03 -2.2608973994368425e-02 0.0000000000000000e+00  1.1097336371643595e-02 -2.2962921570271688e-02 0.0000000000000000e+00  1.3537165541436542e-02 -2.2430311793076137e-02 0.0000000000000000e+00  1.5985352778292019e-02 -2.0961356692009533e-02 0.0000000000000000e+00  1.8342255636815651e-02 -1.8526065916832261e-02 0.0000000000000000e+00  2.0463908343038954e-02 -1.5117872412184383e-02 0.0000000000000000e+00  2.2041835202488071e-02 -1.0767257292075821e-02 0.0000000000000000e+00  2.2093395984564917e-02 -5.6510473225911623e-03 0.0000000000000000e+00  1.7841362255911451e-02 -1.3598282710560539e-03 0.0000000000000000e+00  2.6554605014128686e-02 7.0925989136791023e-03 0.0000000000000000e+00  2.3140809194813546e-02 2.3477503619024325e-03 0.0000000000000000e+00  2.5920403248856874e-02 1.2945375449405263e-02 0.0000000000000000e+00  2.4291566749136635e-02 1.7936611629325007e-02 0.0000000000000000e+00  2.2217183671247195e-02 2.1897587101212885e-02 0.0000000000000000e+00  1.9887417185196800e-02 2.4806593526103999e-02 0.0000000000000000e+00  1.7422522005113444e-02 2.6673672548799543e-02 0.0000000000000000e+00  1.4921048080810679e-02 2.7529072932757102e-02 0.0000000000000000e+00  1.2466760037233834e-02 2.7420482001942959e-02 0.0000000000000000e+00  1.0132132050201168e-02 2.6411186330173499e-02 0.0000000000000000e+00  7.9776588055544863e-03 2.4578128383662745e-02 0.0000000000000000e+00  6.0545138794153557e-03 2.2010014965799692e-02 0.0000000000000000e+00  4.4037579419357788e-03 1.8805474131833717e-02 0.0000000000000000e+00  3.0592332809283450e-03 1.5071324869348786e-02 0.0000000000000000e+00  2.0465818597496317e-03 1.0921130289182094e-02 0.0000000000000000e+00  1.3858651039137760e-03 6.4737586619871825e-03 0.0000000000000000e+00  1.0904244220079117e-03 1.8523493295199062e-03 0.0000000000000000e+00  1.1688057289509885e-03 -2.8169202533344455e-03 0.0000000000000000e+00  1.6232533253875182e-03 -7.4056688579561989e-03 0.0000000000000000e+00  2.4508154695975265e-03 -1.1784557743238942e-02 0.0000000000000000e+00  3.6415015101209816e-03 -1.5824292291761251e-02 0.0000000000000000e+00  5.1784943650181516e-03 -1.9397152320835363e-02 0.0000000000000000e+00  7.0359890821956811e-03 -2.2378505580387398e-02 0.0000000000000000e+00  9.1789072201726545e-03 -2.4648840815136266e-02 0.0000000000000000e+00  1.1560670866200509e-02 -2.6095966945774856e-02 0.0000000000000000e+00  1.4122698112024270e-02 -2.6617598716796077e-02 0.0000000000000000e+00  1.6792445216867496e-02 -2.6124113758076505e-02 0.0000000000000000e+00  1.9482032135114031e-02 -2.4541479080016051e-02 0.0000000000000000e+00  2.2081139716110771e-02 -2.1814450405255873e-02 0.0000000000000000e+00  2.4426639889299051e-02 -1.7911512560894200e-02 0.0000000000000000e+00  2.6155149295092845e-02 -1.2843312731619155e-02 0.0000000000000000e+00  2.6081586022949074e-02 -6.8067243856341237e-03 0.0000000000000000e+00  2.0886933724048325e-02 -1.8581558580594759e-03 0.0000000000000000e+00  3.1464793570615365e-02 8.2556768928904647e-03 0.0000000000000000e+00  2.7365614006389441e-02 2.8712492912631093e-03 0.0000000000000000e+00  3.0808205526939199e-02 1.5022518577066622e-02 0.0000000000000000e+00  2.9044132039129370e-02 2.0740463711918976e-02 0.0000000000000000e+00  2.6801228893638254e-02 2.5220558154425806e-02 0.0000000000000000e+00  2.4289013198915178e-02 2.8457326926976549e-02 0.0000000000000000e+00  2.1639731110986524e-02 3.0481972945052106e-02 0.0000000000000000e+00  1.8959982778380156e-02 3.1346448304203314e-02 0.0000000000000000e+00  1.6340827541507594e-02 3.1119648931253921e-02 0.0000000000000000e+00  1.3858292605267778e-02 2.9884732053254204e-02 0.0000000000000000e+00  1.1576413043170308e-02 2.7736933703011755e-02 0.0000000000000000e+00  9.5463183856210575e-03 2.4781279646602171e-02 0.0000000000000000e+00  7.8101064510361397e-03 2.1130817259768550e-02 0.0000000000000000e+00  6.3996252675937145e-03 1.6904890176821868e-02 0.0000000000000000e+00  5.3406534172389967e-03 1.2227942024904296e-02 0.0000000000000000e+00  4.6510437657121305e-03 7.2284895354292099e-03 0.0000000000000000e+00  4.3447370315772569e-03 2.0383800438254700e-03 0.0000000000000000e+00  4.4292075836829016e-03 -3.2076793398027655e-03 0.0000000000000000e+00  4.9085107382462771e-03 -8.3726943902300722e-03 0.0000000000000000e+00  5.7802819611510736e-03 -1.3317684634952707e-02 0.0000000000000000e+00  7.0374585729429473e-03 -1.7902459408367152e-02 0.0000000000000000e+00  8.6649197704853180e-03 -2.1986286456697507e-02 0.0000000000000000e+00  1.0639807106017325e-02 -2.5429234700569379e-02 0.0000000000000000e+00  1.2928237171499300e-02 -2.8093689101119677e-02 0.0000000000000000e+00  1.5484747498743111e-02 -2.9846518614392359e-02 0.0000000000000000e+00  1.8249361065924407e-02 -3.0561637892951521e-02 0.0000000000000000e+00  2.1146740742794091e-02 -3.0123054567005834e-02 0.0000000000000000e+00  2.4082831026441463e-02 -2.8428357277070118e-02 0.0000000000000000e+00  2.6937360518659657e-02 -2.5392812950921603e-02 0.0000000000000000e+00  2.9525737065608300e-02 -2.0956079368584450e-02 0.0000000000000000e+00  3.1419565247186886e-02 -1.5106052467526712e-02 0.0000000000000000e+00  3.1185882429903167e-02 -8.0602321385012440e-03 0.0000000000000000e+00  2.4808015868133648e-02 -2.3729748728854457e-03 0.0000000000000000e+00  3.7508746765240922e-02 9.5176318514823815e-03 0.0000000000000000e+00  3.2504433217663636e-02 3.4512768227972848e-03 0.0000000000000000e+00  3.6862534023402754e-02 1.7266326515810303e-02 0.0000000000000000e+00  3.4968768318095714e-02 2.3757498228459940e-02 0.0000000000000000e+00  3.2565234414780500e-02 2.8781372579623158e-02 0.0000000000000000e+00  2.9887719788571760e-02 3.2351933803879254e-02 0.0000000000000000e+00  2.7080245515575169e-02 3.4525315415639614e-02 0.0000000000000000e+00  2.4257670289617301e-02 3.5379278259988288e-02 0.0000000000000000e+00  2.1515265581751875e-02 3.5007711127094610e-02 0.0000000000000000e+00  1.8931949498058029e-02 3.3517207284563970e-02 0.0000000000000000e+00  1.6570824842465408e-02 3.1024030478930997e-02 0.0000000000000000e+00  1.4482406434111200e-02 2.7651745978265359e-02 0.0000000000000000e+00  1.2704698106998156e-02 2.3529029677090994e-02 0.0000000000000000e+00  1.1267787784220109e-02 1.8788379352801195e-02 0.0000000000000000e+00  1.0192582887352780e-02 1.3564899107756753e-02 0.0000000000000000e+00  9.4961397024069232e-03 7.9960306943322578e-03 0.0000000000000000e+00  9.1888516993861042e-03 2.2211831277043313e-03 0.0000000000000000e+00  9.2796287664190080e-03 -3.6179105264843802e-03 0.0000000000000000e+00  9.7716346880257383e-03 -9.3770212873756347e-03 0.0000000000000000e+00  1.0666398984379738e-02 -1.4909024269584169e-02 0.0000000000000000e+00  1.1958929972877348e-02 -2.0063678639946455e-02 0.0000000000000000e+00  1.3639680032352119e-02 -2.4687798830109509e-02 0.0000000000000000e+00  1.5689687787629965e-02 -2.8625681031175552e-02 0.0000000000000000e+00  1.8080475779044411e-02 -3.1720372790334656e-02 0.0000000000000000e+00  2.0769826808591456e-02 -3.3815410466960599e-02 0.0000000000000000e+00  2.3700356896202274e-02 -3.4757506413261800e-02 0.0000000000000000e+00  2.6796237207604802e-02 -3.4399897718997645e-02 0.0000000000000000e+00  2.9960114759251703e-02 -3.2606572486988165e-02 0.0000000000000000e+00  3.3062647284057389e-02 -2.9257587689741404e-02 0.0000000000000000e+00  3.5896505018403933e-02 -2.4257876393600955e-02 0.0000000000000000e+00  3.7956559634427421e-02 -1.7567317122804557e-02 0.0000000000000000e+00  3.7509580580144357e-02 -9.4233583063853439e-03 0.0000000000000000e+00  2.9663475556548489e-02 -2.9289510897880914e-03 0.0000000000000000e+00  4.4816493951694222e-02 1.0874257622835783e-02 0.0000000000000000e+00  3.8657758222355905e-02 4.1014191442938384e-03 0.0000000000000000e+00  4.4222515373778887e-02 1.9664183174251375e-02 0.0000000000000000e+00  4.2215018874788394e-02 2.6963294836021785e-02 0.0000000000000000e+00  3.9674326396570023e-02 3.2541235616398295e-02 0.0000000000000000e+00  3.6868582939015536e-02 3.6436329592012172e-02 0.0000000000000000e+00  3.3954315931521983e-02 3.8735161610525620e-02 0.0000000000000000e+00  3.1052541883335411e-02 3.9546780302542016e-02 0.0000000000000000e+00  2.8260584893731632e-02 3.8995128952143548e-02 0.0000000000000000e+00  2.5655752503850961e-02 3.7214472044608343e-02 0.0000000000000000e+00  2.3297469751537542e-02 3.4345485492876866e-02 0.0000000000000000e+00  2.1229747731759622e-02 3.0532386145425014e-02 0.0000000000000000e+00  1.9484635770977889e-02 2.5920731188051951e-02 0.0000000000000000e+00  1.8084003881581077e-02 2.0656051479728155e-02 0.0000000000000000e+00  1.7044014586528548e-02 1.4883438601122618e-02 0.0000000000000000e+00  1.6374733524088841e-02 8.7474074723935692e-03 0.0000000000000000e+00  1.6085492244586583e-02 2.3929320004116394e-03 0.0000000000000000e+00  1.6181667467334109e-02 -4.0339209077179259e-03 0.0000000000000000e+00  1.6669878388860436e-02 -1.0384201805662751e-02 0.0000000000000000e+00  1.7552672042061051e-02 -1.6505144421752146e-02 0.0000000000000000e+00  1.8832382321086853e-02 -2.2238576314479699e-02 0.0000000000000000e+00  2.0504889735326423e-02 -2.7420172017637929e-02 0.0000000000000000e+00  2.2560743099866439e-02 -3.1879053731098443e-02 0.0000000000000000e+00  2.4979397520395179e-02 -3.5438081764738304e-02 0.0000000000000000e+00  2.7727599324178055e-02 -3.7915420666229299e-02 0.0000000000000000e+00  3.0754620084200747e-02 -3.9126850881633320e-02 0.0000000000000000e+00  3.3989228133759597e-02 -3.8889694682596142e-02 0.0000000000000000e+00  3.7334456228741320e-02 -3.7027730144114479e-02 0.0000000000000000e+00  4.0654621791395111e-02 -3.3378112714068334e-02 0.0000000000000000e+00  4.3718680905734886e-02 -2.7802669606679774e-02 0.0000000000000000e+00  4.5932094149635068e-02 -2.0225193076167179e-02 0.0000000000000000e+00  4.5200697735825406e-02 -1.0900728110737064e-02 0.0000000000000000e+00  3.5551753492682879e-02 -3.5458891422390898e-03 0.0000000000000000e+00  5.3548553047848467e-02 1.2314958446240275e-02 0.0000000000000000e+00  4.5947633358203933e-02 4.8334504142176085e-03 0.0000000000000000e+00  5.3059749334812271e-02 2.2190125775872968e-02 0.0000000000000000e+00  5.0966617465471833e-02 3.0312199031757015e-02 0.0000000000000000e+00  4.8329876446602790e-02 3.6431880465717957e-02 0.0000000000000000e+00  4.5456764504464994e-02 4.0619039229137323e-02 0.0000000000000000e+00  4.2516270881717201e-02 4.2998710638588282e-02 0.0000000000000000e+00  3.9632866570944489e-02 4.3718650079257078e-02 0.0000000000000000e+00  3.6901672878506660e-02 4.2939590683838819e-02 0.0000000000000000e+00  3.4393380072473979e-02 4.0828678980444399e-02 0.0000000000000000e+00  3.2157650083053789e-02 3.7554922417336101e-02 0.0000000000000000e+00  3.0226927481745509e-02 3.3285361159299615e-02 0.0000000000000000e+00  2.8620624309109666e-02 2.8183138059582856e-02 0.0000000000000000e+00  2.7349133048680935e-02 2.2406193578795600e-02 0.0000000000000000e+00  2.6417238081473327e-02 1.6107540943917868e-02 0.0000000000000000e+00  2.5827682323315063e-02 9.4361810292082418e-03 0.0000000000000000e+00  2.5582681705555253e-02 2.5387228950530106e-03 0.0000000000000000e+00  2.5687012402802262e-02 -4.4380517534513232e-03 0.0000000000000000e+00  