<?xml version="1.0"?>
<VTKFile type="UnstructuredGrid"  version="0.1"  >
<UnstructuredGrid>
<Piece  NumberOfPoints="759" NumberOfCells="1408">
<Points>
<DataArray  type="Float64"  NumberOfComponents="3"  format="ascii">0 0.46875 0  0.03125 0.46875 0  0.03125 0.515625 0  0 0.515625 0  0.0625 0.46875 0  0.0625 0.515625 0  0.09375 0.46875 0  0.09375 0.515625 0  0.125 0.46875 0  0.125 0.515625 0  0.15625 0.46875 0  0.15625 0.515625 0  0.1875 0.46875 0  0.1875 0.515625 0  0.21875 0.46875 0  0.21875 0.515625 0  0.25 0.46875 0  0.25 0.515625 0  0.28125 0.46875 0  0.28125 0.515625 0  0.3125 0.46875 0  0.3125 0.515625 0  0.34375 0.46875 0  0.34375 0.515625 0  0.375 0.46875 0  0.375 0.515625 0  0.40625 0.46875 0  0.40625 0.515625 0  0.4375 0.46875 0  0.4375 0.515625 0  0.46875 0.46875 0  0.46875 0.515625 0  0.5 0.46875 0  0.5 0.515625 0  0.53125 0.46875 0  0.53125 0.515625 0  0.5625 0.46875 0  0.5625 0.515625 0  0.59375 0.46875 0  0.59375 0.515625 0  0.625 0.46875 0  0.625 0.515625 0  0.65625 0.46875 0  0.65625 0.515625 0  0.6875 0.46875 0  0.6875 0.515625 0  0.71875 0.46875 0  0.71875 0.515625 0  0.75 0.46875 0  0.75 0.515625 0  0.78125 0.46875 0  0.78125 0.515625 0  0.8125 0.46875 0  0.8125 0.515625 0  0.84375 0.46875 0  0.84375 0.515625 0  0.875 0.46875 0  0.875 0.515625 0  0.90625 0.46875 0  0.90625 0.515625 0  0.9375 0.46875 0  0.9375 0.515625 0  0.96875 0.46875 0  0.96875 0.515625 0  1 0.46875 0  1 0.515625 0  0.03125 0.5625 0  0 0.5625 0  0.0625 0.5625 0  0.09375 0.5625 0  0.125 0.5625 0  0.15625 0.5625 0  0.1875 0.5625 0  0.21875 0.5625 0  0.25 0.5625 0  0.28125 0.5625 0  0.3125 0.5625 0  0.34375 0.5625 0  0.375 0.5625 0  0.40625 0.5625 0  0.4375 0.5625 0  0.46875 0.5625 0  0.5 0.5625 0  0.53125 0.5625 0  0.5625 0.5625 0  0.59375 0.5625 0  0.625 0.5625 0  0.65625 0.5625 0  0.6875 0.5625 0  0.71875 0.5625 0  0.75 0.5625 0  0.78125 0.5625 0  0.8125 0.5625 0  0.84375 0.5625 0  0.875 0.5625 0  0.90625 0.5625 0  0.9375 0.5625 0  0.96875 0.5625 0  1 0.5625 0  0.03125 0.609375 0  0 0.609375 0  0.0625 0.609375 0  0.09375 0.609375 0  0.125 0.609375 0  0.15625 0.609375 0  0.1875 0.609375 0  0.21875 0.609375 0  0.25 0.609375 0  0.28125 0.609375 0  0.3125 0.609375 0  0.34375 0.609375 0  0.375 0.609375 0  0.40625 0.609375 0  0.4375 0.609375 0  0.46875 0.609375 0  0.5 0.609375 0  0.53125 0.609375 0  0.5625 0.609375 0  0.59375 0.609375 0  0.625 0.609375 0  0.65625 0.609375 0  0.6875 0.609375 0  0.71875 0.609375 0  0.75 0.609375 0  0.78125 0.609375 0  0.8125 0.609375 0  0.84375 0.609375 0  0.875 0.609375 0  0.90625 0.609375 0  0.9375 0.609375 0  0.96875 0.609375 0  1 0.609375 0  0.03125 0.65625 0  0 0.65625 0  0.0625 0.65625 0  0.09375 0.65625 0  0.125 0.65625 0  0.15625 0.65625 0  0.1875 0.65625 0  0.21875 0.65625 0  0.25 0.65625 0  0.28125 0.65625 0  0.3125 0.65625 0  0.34375 0.65625 0  0.375 0.65625 0  0.40625 0.65625 0  0.4375 0.65625 0  0.46875 0.65625 0  0.5 0.65625 0  0.53125 0.65625 0  0.5625 0.65625 0  0.59375 0.65625 0  0.625 0.65625 0  0.65625 0.65625 0  0.6875 0.65625 0  0.71875 0.65625 0  0.75 0.65625 0  0.78125 0.65625 0  0.8125 0.65625 0  0.84375 0.65625 0  0.875 0.65625 0  0.90625 0.65625 0  0.9375 0.65625 0  0.96875 0.65625 0  1 0.65625 0  0.03125 0.703125 0  0 0.703125 0  0.0625 0.703125 0  0.09375 0.703125 0  0.125 0.703125 0  0.15625 0.703125 0  0.1875 0.703125 0  0.21875 0.703125 0  0.25 0.703125 0  0.28125 0.703125 0  0.3125 0.703125 0  0.34375 0.703125 0  0.375 0.703125 0  0.40625 0.703125 0  0.4375 0.703125 0  0.46875 0.703125 0  0.5 0.703125 0  0.53125 0.703125 0  0.5625 0.703125 0  0.59375 0.703125 0  0.625 0.703125 0  0.65625 0.703125 0  0.6875 0.703125 0  0.71875 0.703125 0  0.75 0.703125 0  0.78125 0.703125 0  0.8125 0.703125 0  0.84375 0.703125 0  0.875 0.703125 0  0.90625 0.703125 0  0.9375 0.703125 0  0.96875 0.703125 0  1 0.703125 0  0.03125 0.75 0  0 0.75 0  0.0625 0.75 0  0.09375 0.75 0  0.125 0.75 0  0.15625 0.75 0  0.1875 0.75 0  0.21875 0.75 0  0.25 0.75 0  0.28125 0.75 0  0.3125 0.75 0  0.34375 0.75 0  0.375 0.75 0  0.40625 0.75 0  0.4375 0.75 0  0.46875 0.75 0  0.5 0.75 0  0.53125 0.75 0  0.5625 0.75 0  0.59375 0.75 0  0.625 0.75 0  0.65625 0.75 0  0.6875 0.75 0  0.71875 0.75 0  0.75 0.75 0  0.78125 0.75 0  0.8125 0.75 0  0.84375 0.75 0  0.875 0.75 0  0.90625 0.75 0  0.9375 0.75 0  0.96875 0.75 0  1 0.75 0  0.03125 0.796875 0  0 0.796875 0  0.0625 0.796875 0  0.09375 0.796875 0  0.125 0.796875 0  0.15625 0.796875 0  0.1875 0.796875 0  0.21875 0.796875 0  0.25 0.796875 0  0.28125 0.796875 0  0.3125 0.796875 0  0.34375 0.796875 0  0.375 0.796875 0  0.40625 0.796875 0  0.4375 0.796875 0  0.46875 0.796875 0  0.5 0.796875 0  0.53125 0.796875 0  0.5625 0.796875 0  0.59375 0.796875 0  0.625 0.796875 0  0.65625 0.796875 0  0.6875 0.796875 0  0.71875 0.796875 0  0.75 0.796875 0  0.78125 0.796875 0  0.8125 0.796875 0  0.84375 0.796875 0  0.875 0.796875 0  0.90625 0.796875 0  0.9375 0.796875 0  0.96875 0.796875 0  1 0.796875 0  0.03125 0.84375 0  0 0.84375 0  0.0625 0.84375 0  0.09375 0.84375 0  0.125 0.84375 0  0.15625 0.84375 0  0.1875 0.84375 0  0.21875 0.84375 0  0.25 0.84375 0  0.28125 0.84375 0  0.3125 0.84375 0  0.34375 0.84375 0  0.375 0.84375 0  0.40625 0.84375 0  0.4375 0.84375 0  0.46875 0.84375 0  0.5 0.84375 0  0.53125 0.84375 0  0.5625 0.84375 0  0.59375 0.84375 0  0.625 0.84375 0  0.65625 0.84375 0  0.6875 0.84375 0  0.71875 0.84375 0  0.75 0.84375 0  0.78125 0.84375 0  0.8125 0.84375 0  0.84375 0.84375 0  0.875 0.84375 0  0.90625 0.84375 0  0.9375 0.84375 0  0.96875 0.84375 0  1 0.84375 0  0.03125 0.890625 0  0 0.890625 0  0.0625 0.890625 0  0.09375 0.890625 0  0.125 0.890625 0  0.15625 0.890625 0  0.1875 0.890625 0  0.21875 0.890625 0  0.25 0.890625 0  0.28125 0.890625 0  0.3125 0.890625 0  0.34375 0.890625 0  0.375 0.890625 0  0.40625 0.890625 0  0.4375 0.890625 0  0.46875 0.890625 0  0.5 0.890625 0  0.53125 0.890625 0  0.5625 0.890625 0  0.59375 0.890625 0  0.625 0.890625 0  0.65625 0.890625 0  0.6875 0.890625 0  0.71875 0.890625 0  0.75 0.890625 0  0.78125 0.890625 0  0.8125 0.890625 0  0.84375 0.890625 0  0.875 0.890625 0  0.90625 0.890625 0  0.9375 0.890625 0  0.96875 0.890625 0  1 0.890625 0  0.03125 0.9375 0  0 0.9375 0  0.0625 0.9375 0  0.09375 0.9375 0  0.125 0.9375 0  0.15625 0.9375 0  0.1875 0.9375 0  0.21875 0.9375 0  0.25 0.9375 0  0.28125 0.9375 0  0.3125 0.9375 0  0.34375 0.9375 0  0.375 0.9375 0  0.40625 0.9375 0  0.4375 0.9375 0  0.46875 0.9375 0  0.5 0.9375 0  0.53125 0.9375 0  0.5625 0.9375 0  0.59375 0.9375 0  0.625 0.9375 0  0.65625 0.9375 0  0.6875 0.9375 0  0.71875 0.9375 0  0.75 0.9375 0  0.78125 0.9375 0  0.8125 0.9375 0  0.84375 0.9375 0  0.875 0.9375 0  0.90625 0.9375 0  0.9375 0.9375 0  0.96875 0.9375 0  1 0.9375 0  0.03125 0.984375 0  0 0.984375 0  0.0625 0.984375 0  0.09375 0.984375 0  0.125 0.984375 0  0.15625 0.984375 0  0.1875 0.984375 0  0.21875 0.984375 0  0.25 0.984375 0  0.28125 0.984375 0  0.3125 0.984375 0  0.34375 0.984375 0  0.375 0.984375 0  0.40625 0.984375 0  0.4375 0.984375 0  0.46875 0.984375 0  0.5 0.984375 0  0.53125 0.984375 0  0.5625 0.984375 0  0.59375 0.984375 0  0.625 0.984375 0  0.65625 0.984375 0  0.6875 0.984375 0  0.71875 0.984375 0  0.75 0.984375 0  0.78125 0.984375 0  0.8125 0.984375 0  0.84375 0.984375 0  0.875 0.984375 0  0.90625 0.984375 0  0.9375 0.984375 0  0.96875 0.984375 0  1 0.984375 0  0.03125 1.03125 0  0 1.03125 0  0.0625 1.03125 0  0.09375 1.03125 0  0.125 1.03125 0  0.15625 1.03125 0  0.1875 1.03125 0  0.21875 1.03125 0  0.25 1.03125 0  0.28125 1.03125 0  0.3125 1.03125 0  0.34375 1.03125 0  0.375 1.03125 0  0.40625 1.03125 0  0.4375 1.03125 0  0.46875 1.03125 0  0.5 1.03125 0  0.53125 1.03125 0  0.5625 1.03125 0  0.59375 1.03125 0  0.625 1.03125 0  0.65625 1.03125 0  0.6875 1.03125 0  0.71875 1.03125 0  0.75 1.03125 0  0.78125 1.03125 0  0.8125 1.03125 0  0.84375 1.03125 0  0.875 1.03125 0  0.90625 1.03125 0  0.9375 1.03125 0  0.96875 1.03125 0  1 1.03125 0  0.03125 1.078125 0  0 1.078125 0  0.0625 1.078125 0  0.09375 1.078125 0  0.125 1.078125 0  0.15625 1.078125 0  0.1875 1.078125 0  0.21875 1.078125 0  0.25 1.078125 0  0.28125 1.078125 0  0.3125 1.078125 0  0.34375 1.078125 0  0.375 1.078125 0  0.40625 1.078125 0  0.4375 1.078125 0  0.46875 1.078125 0  0.5 1.078125 0  0.53125 1.078125 0  0.5625 1.078125 0  0.59375 1.078125 0  0.625 1.078125 0  0.65625 1.078125 0  0.6875 1.078125 0  0.71875 1.078125 0  0.75 1.078125 0  0.78125 1.078125 0  0.8125 1.078125 0  0.84375 1.078125 0  0.875 1.078125 0  0.90625 1.078125 0  0.9375 1.078125 0  0.96875 1.078125 0  1 1.078125 0  0.03125 1.125 0  0 1.125 0  0.0625 1.125 0  0.09375 1.125 0  0.125 1.125 0  0.15625 1.125 0  0.1875 1.125 0  0.21875 1.125 0  0.25 1.125 0  0.28125 1.125 0  0.3125 1.125 0  0.34375 1.125 0  0.375 1.125 0  0.40625 1.125 0  0.4375 1.125 0  0.46875 1.125 0  0.5 1.125 0  0.53125 1.125 0  0.5625 1.125 0  0.59375 1.125 0  0.625 1.125 0  0.65625 1.125 0  0.6875 1.125 0  0.71875 1.125 0  0.75 1.125 0  0.78125 1.125 0  0.8125 1.125 0  0.84375 1.125 0  0.875 1.125 0  0.90625 1.125 0  0.9375 1.125 0  0.96875 1.125 0  1 1.125 0  0.03125 1.171875 0  0 1.171875 0  0.0625 1.171875 0  0.09375 1.171875 0  0.125 1.171875 0  0.15625 1.171875 0  0.1875 1.171875 0  0.21875 1.171875 0  0.25 1.171875 0  0.28125 1.171875 0  0.3125 1.171875 0  0.34375 1.171875 0  0.375 1.171875 0  0.40625 1.171875 0  0.4375 1.171875 0  0.46875 1.171875 0  0.5 1.171875 0  0.53125 1.171875 0  0.5625 1.171875 0  0.59375 1.171875 0  0.625 1.171875 0  0.65625 1.171875 0  0.6875 1.171875 0  0.71875 1.171875 0  0.75 1.171875 0  0.78125 1.171875 0  0.8125 1.171875 0  0.84375 1.171875 0  0.875 1.171875 0  0.90625 1.171875 0  0.9375 1.171875 0  0.96875 1.171875 0  1 1.171875 0  0.03125 1.21875 0  0 1.21875 0  0.0625 1.21875 0  0.09375 1.21875 0  0.125 1.21875 0  0.15625 1.21875 0  0.1875 1.21875 0  0.21875 1.21875 0  0.25 1.21875 0  0.28125 1.21875 0  0.3125 1.21875 0  0.34375 1.21875 0  0.375 1.21875 0  0.40625 1.21875 0  0.4375 1.21875 0  0.46875 1.21875 0  0.5 1.21875 0  0.53125 1.21875 0  0.5
[...]
<PointData  Vectors="u"> 
<DataArray  type="Float64"  Name="u"  NumberOfComponents="3" format="ascii">1.4115632761898627e-02 7.1456553670766541e-04 0.0000000000000000e+00  1.6276493824908915e-02 3.9886894492014678e-03 0.0000000000000000e+00  1.7907990748655837e-02 4.2708021374572840e-03 0.0000000000000000e+00  1.5336705650508823e-02 9.3245283127976200e-04 0.0000000000000000e+00  1.5725271757771293e-02 7.2635744464774298e-03 0.0000000000000000e+00  1.7522470954761251e-02 7.8590999618622284e-03 0.0000000000000000e+00  1.4634180096075098e-02 1.0192410185129213e-02 0.0000000000000000e+00  1.6217591487592005e-02 1.1030364676633818e-02 0.0000000000000000e+00  1.3204921416635373e-02 1.2655763211048301e-02 0.0000000000000000e+00  1.4557443279189385e-02 1.3673131245192182e-02 0.0000000000000000e+00  1.1545490567579848e-02 1.4587935490462665e-02 0.0000000000000000e+00  1.2695297483746988e-02 1.5725846504767580e-02 0.0000000000000000e+00  9.7455776089881915e-03 1.5944655452632139e-02 0.0000000000000000e+00  1.0720259068972043e-02 1.7150163506588836e-02 0.0000000000000000e+00  7.8834741207975297e-03 1.6701886007664587e-02 0.0000000000000000e+00  8.7073282122233538e-03 1.7928124266671046e-02 0.0000000000000000e+00  6.0281463557162246e-03 1.6855537930976890e-02 0.0000000000000000e+00  6.7224812011906542e-03 1.8061223494699692e-02 0.0000000000000000e+00  4.2402046906403670e-03 1.6420253058629288e-02 0.0000000000000000e+00  4.8235916391899314e-03 1.7569279444171835e-02 0.0000000000000000e+00  2.5725030398972429e-03 1.5427778850684680e-02 0.0000000000000000e+00  3.0612442302567419e-03 1.6488798679502450e-02 0.0000000000000000e+00  1.0706447775536022e-03 1.3925018072562486e-02 0.0000000000000000e+00  1.4789392711676058e-03 1.4871169161203297e-02 0.0000000000000000e+00  -2.2665056094136292e-04 1.1972050774368663e-02 0.0000000000000000e+00  1.1365090570065618e-04 1.2780656635931063e-02 0.0000000000000000e+00  -1.2871611858573948e-03 9.6400555042072105e-03 0.0000000000000000e+00  -1.0040139544831011e-03 1.0292456386343903e-02 0.0000000000000000e+00  -2.0849407882611989e-03 7.0093189066975873e-03 0.0000000000000000e+00  -1.8494809932064250e-03 7.4906849146347291e-03 0.0000000000000000e+00  -2.6001138281375015e-03 4.1672113279075098e-03 0.0000000000000000e+00  -2.4041708134154936e-03 4.4664825459969221e-03 0.0000000000000000e+00  -2.8187540801970427e-03 1.2062469148761104e-03 0.0000000000000000e+00  -2.6552850993456609e-03 1.3160760486698518e-03 0.0000000000000000e+00  -2.7328211705781422e-03 -1.7778905310464801e-03 0.0000000000000000e+00  -2.5959100466134062e-03 -1.8610749102159158e-03 0.0000000000000000e+00  -2.3402203381556923e-03 -4.6882949650639090e-03 0.0000000000000000e+00  -2.2250477716696700e-03 -4.9642030251652548e-03 0.0000000000000000e+00  -1.6448941407330936e-03 -7.4288664869086645e-03 0.0000000000000000e+00  -1.5478540003929348e-03 -7.8931548242264105e-03 0.0000000000000000e+00  -6.5699507865856009e-04 -9.9063819792806224e-03 0.0000000000000000e+00  -5.7582471923396824e-04 -1.0550437263970387e-02 0.0000000000000000e+00  6.0688275579064371e-04 -1.2032700985994862e-02 0.0000000000000000e+00  6.7277294413350128e-04 -1.2843335587760889e-02 0.0000000000000000e+00  2.1234027376197942e-03 -1.3727058022863600e-02 0.0000000000000000e+00  2.1725530209611723e-03 -1.4686200804444096e-02 0.0000000000000000e+00  3.8622356560201569e-03 -1.4918516094407159e-02 0.0000000000000000e+00  3.8905189949014238e-03 -1.6002839480899742e-02 0.0000000000000000e+00  5.7857665918985765e-03 -1.5548495437075999e-02 0.0000000000000000e+00  5.7856954194328587e-03 -1.6729063360138366e-02 0.0000000000000000e+00  7.8488690957799184e-03 -1.5573411099661320e-02 0.0000000000000000e+00  7.8086177724190388e-03 -1.6815284737981807e-02 0.0000000000000000e+00  9.9985210391264345e-03 -1.4967305858338614e-02 0.0000000000000000e+00  9.9009438249936851e-03 -1.6229159621791618e-02 0.0000000000000000e+00  1.2172572425258061e-02 -1.3724492052585687e-02 0.0000000000000000e+00  1.1994286110834113e-02 -1.4958129947059889e-02 0.0000000000000000e+00  1.4294133559288685e-02 -1.1862259739230798e-02 0.0000000000000000e+00  1.4006216471532650e-02 -1.3011921605473221e-02 0.0000000000000000e+00  1.6245320622157559e-02 -9.4246883686758716e-03 0.0000000000000000e+00  1.5821254823600004e-02 -1.0425573908465727e-02 0.0000000000000000e+00  1.7748050673819141e-02 -6.4942442871678040e-03 0.0000000000000000e+00  1.7204511739362199e-02 -7.2680325468395613e-03 0.0000000000000000e+00  1.7923226147216573e-02 -3.2636025434457918e-03 0.0000000000000000e+00  1.7455828975854210e-02 -3.6949998577865146e-03 0.0000000000000000e+00  1.5186561252753503e-02 -3.0010298194383907e-04 0.0000000000000000e+00  1.4587269238948573e-02 -4.1160045867295593e-04 0.0000000000000000e+00  1.9808683051256309e-02 5.0655418875092300e-03 0.0000000000000000e+00  1.7169233308674908e-02 1.3983964645879665e-03 0.0000000000000000e+00  1.9302677560479396e-02 9.3105588343870473e-03 0.0000000000000000e+00  1.7924459416305910e-02 1.3009097359229567e-02 0.0000000000000000e+00  1.6156260084272161e-02 1.6034255836805608e-02 0.0000000000000000e+00  1.4167504436723995e-02 1.8337526435265688e-02 0.0000000000000000e+00  1.2060568772391884e-02 1.9894513621675922e-02 0.0000000000000000e+00  9.9167423743673922e-03 2.0700535661577115e-02 0.0000000000000000e+00  7.8061684368245570e-03 2.0769700636818499e-02 0.0000000000000000e+00  5.7903592439297463e-03 2.0133604596282162e-02 0.0000000000000000e+00  3.9223650982398413e-03 1.8839818730552699e-02 0.0000000000000000e+00  2.2477662727896602e-03 1.6950029572695674e-02 0.0000000000000000e+00  8.0473161489593890e-04 1.4538231196969518e-02 0.0000000000000000e+00  -3.7508861257999545e-04 1.1688749516087515e-02 0.0000000000000000e+00  -1.2666319558647815e-03 8.4944754863318980e-03 0.0000000000000000e+00  -1.8507686507952107e-03 5.0549837976246572e-03 0.0000000000000000e+00  -2.1144146307457133e-03 1.4748712338958935e-03 0.0000000000000000e+00  -2.0502364799106806e-03 -2.1380333786389823e-03 0.0000000000000000e+00  -1.6569840843393992e-03 -5.6743143533839399e-03 0.0000000000000000e+00  -9.3947184146240593e-04 -9.0247995510242124e-03 0.0000000000000000e+00  9.0870029968575882e-05 -1.2082359377298587e-02 0.0000000000000000e+00  1.4157088671435468e-03 -1.4743942339445121e-02 0.0000000000000000e+00  3.0090230948938350e-03 -1.6912675660190866e-02 0.0000000000000000e+00  4.8367172692912715e-03 -1.8500217834184381e-02 0.0000000000000000e+00  6.8557481798498191e-03 -1.9429189307541259e-02 0.0000000000000000e+00  9.0137152003778621e-03 -1.9635776598438126e-02 0.0000000000000000e+00  1.1247986155720315e-02 -1.9072289776534714e-02 0.0000000000000000e+00  1.3484621517652067e-02 -1.7709678542086400e-02 0.0000000000000000e+00  1.5633612671068827e-02 -1.5539869486717062e-02 0.0000000000000000e+00  1.7567865292733676e-02 -1.2578718275455642e-02 0.0000000000000000e+00  1.9023977182127512e-02 -8.8758088260697376e-03 0.0000000000000000e+00  1.9184170034946824e-02 -4.5907781533664439e-03 0.0000000000000000e+00  1.5678136060775141e-02 -8.5877882008632733e-04 0.0000000000000000e+00  2.2683998738449538e-02 6.0275384527186116e-03 0.0000000000000000e+00  1.9755646710418753e-02 1.8640322768480977e-03 0.0000000000000000e+00  2.2099819686108860e-02 1.1037559990953830e-02 0.0000000000000000e+00  2.0602250871561142e-02 1.5353582285613478e-02 0.0000000000000000e+00  1.8690378503089699e-02 1.8827331690341641e-02 0.0000000000000000e+00  1.6541208401454337e-02 2.1422750738221322e-02 0.0000000000000000e+00  1.4264708678031984e-02 2.3131589369130831e-02 0.0000000000000000e+00  1.1950080844011467e-02 2.3965410842752242e-02 0.0000000000000000e+00  9.6745847812246492e-03 2.3953820057646007e-02 0.0000000000000000e+00  7.5045585924313407e-03 2.3143046510580297e-02 0.0000000000000000e+00  5.4973491117865925e-03 2.1594239740822321e-02 0.0000000000000000e+00  3.7009350196681940e-03 1.9381726536343926e-02 0.0000000000000000e+00  2.1557198986396795e-03 1.6591091763959464e-02 0.0000000000000000e+00  8.9420633777752430e-04 1.3317482706618658e-02 0.0000000000000000e+00  -5.7471394261396336e-05 9.6637934315303205e-03 0.0000000000000000e+00  -6.7992614677672616e-04 5.7391955965606280e-03 0.0000000000000000e+00  -9.5935394790057295e-04 1.6574948029185797e-03 0.0000000000000000e+00  -8.8812946049870165e-04 -2.4641748559939506e-03 0.0000000000000000e+00  -4.6421893300281007e-04 -6.5069200792410940e-03 0.0000000000000000e+00  3.0799831776920741e-04 -1.0351440598577575e-02 0.0000000000000000e+00  1.4178001216543373e-03 -1.3879727870687902e-02 0.0000000000000000e+00  2.8469443726885798e-03 -1.6976707998245310e-02 0.0000000000000000e+00  4.5693453315407582e-03 -1.9532263747597773e-02 0.0000000000000000e+00  6.5497154154507808e-03 -2.1443331035761466e-02 0.0000000000000000e+00  8.7430880889056359e-03 -2.2616323995797757e-02 0.0000000000000000e+00  1.1093438372848152e-02 -2.2969636053030529e-02 0.0000000000000000e+00  1.3533229844797020e-02 -2.2436290256005735e-02 0.0000000000000000e+00  1.5981385191969563e-02 -2.0966505922116796e-02 0.0000000000000000e+00  1.8338259900527083e-02 -1.8530301935153058e-02 0.0000000000000000e+00  2.0459889157480905e-02 -1.5121122355304552e-02 0.0000000000000000e+00  2.2037817809790201e-02 -1.0769461324696819e-02 0.0000000000000000e+00  2.2089531409613124e-02 -5.6521615894679408e-03 0.0000000000000000e+00  1.7838382639686512e-02 -1.3598395495138128e-03 0.0000000000000000e+00  2.6553712210930520e-02 7.0921469913925502e-03 0.0000000000000000e+00  2.3140267994776854e-02 2.3478459389949724e-03 0.0000000000000000e+00  2.5919394434578795e-02 1.2944423933817834e-02 0.0000000000000000e+00  2.4290481828375884e-02 1.7935129655310474e-02 0.0000000000000000e+00  2.2216010463453971e-02 2.1895544145534539e-02 0.0000000000000000e+00  1.9886136720084820e-02 2.4803965011588207e-02 0.0000000000000000e+00  1.7421117347662125e-02 2.6670440755715633e-02 0.0000000000000000e+00  1.4919505500873472e-02 2.7525227575573435e-02 0.0000000000000000e+00  1.2465068852106265e-02 2.7416020803854461e-02 0.0000000000000000e+00  1.0130284319804644e-02 2.6406115584961955e-02 0.0000000000000000e+00  7.9756490815801346e-03 2.4572463463844577e-02 0.0000000000000000e+00  6.0523390180111502e-03 2.2003780739290983e-02 0.0000000000000000e+00  4.4014169621687648e-03 1.8798705255151718e-02 0.0000000000000000e+00  3.0567272493126989e-03 1.5064065932209545e-02 0.0000000000000000e+00  2.0439137885405671e-03 1.0913435790156984e-02 0.0000000000000000e+00  1.3830398434770690e-03 6.4656928000512218e-03 0.0000000000000000e+00  1.0874485399280181e-03 1.8439856013658241e-03 0.0000000000000000e+00  1.1656873647226808e-03 -2.8254996574680058e-03 0.0000000000000000e+00  1.6200020177485248e-03 -7.4143738620168617e-03 0.0000000000000000e+00  2.4474419410203730e-03 -1.1793291394599092e-02 0.0000000000000000e+00  3.6380174106042567e-03 -1.5832951967132747e-02 0.0000000000000000e+00  5.1749119722499628e-03 -1.9405631117929933e-02 0.0000000000000000e+00  7.0323209560293632e-03 -2.2386693881293839e-02 0.0000000000000000e+00  9.1751657997150952e-03 -2.4656628002236679e-02 0.0000000000000000e+00  1.1556868026885492e-02 -2.6103243243677951e-02 0.0000000000000000e+00  1.4118844677153313e-02 -2.6624257131541543e-02 0.0000000000000000e+00  1.6788550423475872e-02 -2.6130052077016016e-02 0.0000000000000000e+00  1.9478103148941859e-02 -2.4546601892997753e-02 0.0000000000000000e+00  2.2077181609011304e-02 -2.1818671108895470e-02 0.0000000000000000e+00  2.4422658499633845e-02 -1.7914755324242509e-02 0.0000000000000000e+00  2.6151170204070578e-02 -1.2845514528994555e-02 0.0000000000000000e+00  2.6077757501399824e-02 -6.8078383450767372e-03 0.0000000000000000e+00  2.0883976963205444e-02 -1.8581706550609503e-03 0.0000000000000000e+00  3.1464111838980839e-02 8.2552714349979923e-03 0.0000000000000000e+00  2.7365241697630674e-02 2.8713537580209790e-03 0.0000000000000000e+00  3.0807416329844274e-02 1.5021656026633339e-02 0.0000000000000000e+00  2.9043270319529527e-02 2.0739107899269332e-02 0.0000000000000000e+00  2.6800281561558482e-02 2.5218672867369164e-02 0.0000000000000000e+00  2.4287960542214874e-02 2.8454882447096267e-02 0.0000000000000000e+00  2.1638555159917229e-02 3.0478946961637023e-02 0.0000000000000000e+00  1.8958668537153219e-02 3.1342826391775526e-02 0.0000000000000000e+00  1.6339362921263558e-02 3.1115425016523170e-02 0.0000000000000000e+00  1.3856668196787698e-02 2.9879908885165413e-02 0.0000000000000000e+00  1.1574621922013216e-02 2.7731523289773904e-02 0.0000000000000000e+00  9.5443559725701711e-03 2.4775303622187991e-02 0.0000000000000000e+00  7.8079704082979935e-03 2.1124307147633241e-02 0.0000000000000000e+00  6.3973154214405211e-03 1.6897887523841255e-02 0.0000000000000000e+00  5.3381716858689433e-03 1.2220498383078380e-02 0.0000000000000000e+00  4.6483940844015787e-03 7.2206662748748231e-03 0.0000000000000000e+00  4.3419252547224427e-03 2.0302479840509560e-03 0.0000000000000000e+00  4.4262413649209173e-03 -3.2160404888820046e-03 0.0000000000000000e+00  4.9053993714905150e-03 -8.3811967833427453e-03 0.0000000000000000e+00  5.7770361797451148e-03 -1.3326233241929926e-02 0.0000000000000000e+00  7.0340902954457154e-03 -1.7910953158458729e-02 0.0000000000000000e+00  8.6614417976788489e-03 -2.1994619570696424e-02 0.0000000000000000e+00  1.0636232762298765e-02 -2.5437298197983644e-02 0.0000000000000000e+00  1.2924579885127489e-02 -2.8101372467822978e-02 0.0000000000000000e+00  1.5481020327378123e-02 -2.9853711609876672e-02 0.0000000000000000e+00  1.8245576174003929e-02 -3.0568232469180119e-02 0.0000000000000000e+00  2.1142908825815813e-02 -3.0128946866236780e-02 0.0000000000000000e+00  2.4078960774095007e-02 -2.8433449670809189e-02 0.0000000000000000e+00  2.6933458511532862e-02 -2.5397016080542539e-02 0.0000000000000000e+00  2.9521810444104884e-02 -2.0959314163908040e-02 0.0000000000000000e+00  3.1415639991226506e-02 -1.5108252273249752e-02 0.0000000000000000e+00  3.1182103487868509e-02 -8.0613465464599143e-03 0.0000000000000000e+00  2.4805090402250499e-02 -2.3729950885404715e-03 0.0000000000000000e+00  3.7508297362479064e-02 9.5172698440811020e-03 0.0000000000000000e+00  3.2504243904797475e-02 3.4513873878707036e-03 0.0000000000000000e+00  3.6861988010523858e-02 1.7265548108301037e-02 0.0000000000000000e+00  3.4968154665234029e-02 2.3756262949413531e-02 0.0000000000000000e+00  3.2564539331156002e-02 2.8779639544685140e-02 0.0000000000000000e+00  2.9886923159921138e-02 3.2349668920027830e-02 0.0000000000000000e+00  2.7079328590997855e-02 3.4522492334491207e-02 0.0000000000000000e+00  2.4256616922035242e-02 3.5375878796888728e-02 0.0000000000000000e+00  2.1514062263116539e-02 3.5003725658051751e-02 0.0000000000000000e+00  1.8930585224417193e-02 3.3512635151065673e-02 0.0000000000000000e+00  1.6569290999578320e-02 3.1018880372133271e-02 0.0000000000000000e+00  1.4480696722038510e-02 2.7646036268134926e-02 0.0000000000000000e+00  1.2702808495124916e-02 2.3522788654882301e-02 0.0000000000000000e+00  1.1265716482398921e-02 1.8781645360393839e-02 0.0000000000000000e+00  1.0190330323870357e-02 1.3557720531166148e-02 0.0000000000000000e+00  9.4937084865962303e-03 7.9884658028401331e-03 0.0000000000000000e+00  9.1862465668611833e-03 2.2132997457581854e-03 0.0000000000000000e+00  9.2768564884528094e-03 -3.6260355263647826e-03 0.0000000000000000e+00  9.7687039465008032e-03 -9.3853026767525983e-03 0.0000000000000000e+00  1.0663320187387332e-02 -1.4917369346014661e-02 0.0000000000000000e+00  1.1955715018990769e-02 -2.0071988297092086e-02 0.0000000000000000e+00  1.3636342010583386e-02 -2.4695968815423960e-02 0.0000000000000000e+00  1.5686240614687662e-02 -2.8633603383007869e-02 0.0000000000000000e+00  1.8076933762415339e-02 -3.1727937442104573e-02 0.0000000000000000e+00  2.0766204149291773e-02 -3.3822507002857882e-02 0.0000000000000000e+00  2.3696667128283659e-02 -3.4764025952136325e-02 0.0000000000000000e+00  2.6792492577985272e-02 -3.4405734895346346e-02 0.0000000000000000e+00  2.9956325633681738e-02 -3.2611627492847454e-02 0.0000000000000000e+00  3.3058821960360918e-02 -2.9261768337764102e-02 0.0000000000000000e+00  3.5892652188772294e-02 -2.4261100178654994e-02 0.0000000000000000e+00  3.7952705871682271e-02 -1.7569513444137728e-02 0.0000000000000000e+00  3.7505867089663192e-02 -9.4244728432146280e-03 0.0000000000000000e+00  2.9660592194397251e-02 -2.9289778317754915e-03 0.0000000000000000e+00  4.4816292015644153e-02 1.0873935140426732e-02 0.0000000000000000e+00  3.8657761341227538e-02 4.1015331916477021e-03 0.0000000000000000e+00  4.4222229765228618e-02 1.9663482395996423e-02 0.0000000000000000e+00  4.2214671877589489e-02 2.6962172109992563e-02 0.0000000000000000e+00  3.9673903774108434e-02 3.2539646519810193e-02 0.0000000000000000e+00  3.6868064552657828e-02 3.6434236594452371e-02 0.0000000000000000e+00  3.3953682546007113e-02 3.8732535059135174e-02 0.0000000000000000e+00  3.1051776379394377e-02 3.9543598808339783e-02 0.0000000000000000e+00  2.8259672401862251e-02 3.8991379742542048e-02 0.0000000000000000e+00  2.5654680374597109e-02 3.7210151325544276e-02 0.0000000000000000e+00  2.3296227532604026e-02 3.4340598797914228e-02 0.0000000000000000e+00  2.1228327173142058e-02 3.0526948640194274e-02 0.0000000000000000e+00  1.9483030851170396e-02 2.5914767901874740e-02 0.0000000000000000e+00  1.8082210844283797e-02 2.0649597437468449e-02 0.0000000000000000e+00  1.7042031975159268e-02 1.4876538834032952e-02 0.0000000000000000e+00  1.6372562204202721e-02 8.7401168901320575e-03 0.0000000000000000e+00  1.6083135395406886e-02 2.3853151087713698e-03 0.0000000000000000e+00  1.6179130543584407e-02 -4.0417904534307105e-03 0.0000000000000000e+00  1.6667169031923522e-02 -1.0392241821843989e-02 0.0000000000000000e+00  1.7549799937738992e-02 -1.6513264996427617e-02 0.0000000000000000e+00  1.8829358984156264e-02 -2.2246680791234874e-02 0.0000000000000000e+00  2.0501728232145432e-02 -2.7428158162195470e-02 0.0000000000000000e+00  2.2557457688567421e-02 -3.1886815079895728e-02 0.0000000000000000e+00  2.4976003208822064e-02 -3.5445509147283380e-02 0.0000000000000000e+00  2.7724111351489868e-02 -3.7922403889737902e-02 0.0000000000000000e+00  3.0751053329826045e-02 -3.9133280560336325e-02 0.0000000000000000e+00  3.3985596453364554e-02 -3.8895464184484647e-02 0.0000000000000000e+00  3.7330771802984525e-02 -3.7032737621739850e-02 0.0000000000000000e+00  4.0650894851759226e-02 -3.3382263180401182e-02 0.0000000000000000e+00  4.3714921975506069e-02 -2.7805877036871016e-02 0.0000000000000000e+00  4.5928330637016831e-02 -2.0227382732433540e-02 0.0000000000000000e+00  4.5197066744655498e-02 -1.0901841492867851e-02 0.0000000000000000e+00  3.5548924251214677e-02 -3.5459229938843251e-03 0.0000000000000000e+00  5.3548607929117781e-02 1.2314670636144599e-02 0.0000000000000000e+00  4.5947833900593642e-02 4.8335653095161191e-03 0.0000000000000000e+00  5.3059735339228323e-02 2.2189494389985600e-02 0.0000000000000000e+00  5.0966549717680422e-02 3.0311178460426750e-02 0.0000000000000000e+00  4.8329740550030330e-02 3.6430423997253263e-02 0.0000000000000000e+00  4.5456540682251051e-02 4.0617106972300469e-02 0.0000000000000000e+00  4.2515939733474978e-02 4.2996270522977879e-02 0.0000000000000000e+00  3.9632410224100231e-02 4.3715678221976237e-02 0.0000000000000000e+00  3.6901075215543623e-02 4.2936071715111698e-02 0.0000000000000000e+00  3.4392626808846728e-02 4.0824606380136186e-02 0.0000000000000000e+00  3.2156728844467582e-02 3.7550298843565352e-02 0.0000000000000000e+00  3.0225827897981169e-02 3.3280198740744900e-02 0.0000000000000000e+00  2.8619338121164253e-02 2.8177458624097429e-02 0.0000000000000000e+00  2.7347654221317946e-02 2.2400028795730234e-02 0.0000000000000000e+00  2.6415562908390013e-02 1.6100932357417126e-02 0.0000000000000000e+00  2.5825809515590620e-02 9.4291799675900578e-03 0.0000000000000000e+00  2.5580612450264290e-02 2.5313902411125758e-03 0.0000000000000000e+00  2.5684750382205270e-02 -4.4456459431710957e-03 0.0000000000000000e+00  