<?xml version="1.0"?>
<VTKFile type="UnstructuredGrid"  version="0.1"  >
<UnstructuredGrid>
<Piece  NumberOfPoints="825" NumberOfCells="1536">
<Points>
<DataArray  type="Float64"  NumberOfComponents="3"  format="ascii">1.005039869961272e-22 0.5 0  0.06249999767144006 0.5000001248359165 0  0.06249982094902778 0.5625001446851318 0  -1.749599374652347e-07 0.5625000040797022 0  0.124999981397991 0.5000002371024337 0  0.1249998048445353 0.5625002581921047 0  0.187499955135134 0.5000003666021534 0  0.1874997765690686 0.5625003648678647 0  0.2499998993299135 0.5000004684210756 0  0.249999735088356 0.5625004601098943 0  0.3124998272772847 0.5000005612158305 0  0.3124996787413629 0.5625005430069029 0  0.3749997476798917 0.5000006558188481 0  0.3749996091064557 0.56250061189269 0  0.4374996325043877 0.5000007032548778 0  0.4374995253908061 0.5625006529072133 0  0.4999994861376053 0.5000007059034826 0  0.4999994262658599 0.5625006561755768 0  0.5624993124357299 0.500000650555177 0  0.562499314310962 0.5625006206463705 0  0.6249991469602085 0.5000005799650288 0  0.6249991965756553 0.5625005565094329 0  0.687498982798909 0.5000004802753564 0  0.6874990807778625 0.5625004681223916 0  0.7499988268538177 0.5000003541627795 0  0.749998971440196 0.5625003603761164 0  0.8124987004493579 0.5000002327658606 0  0.8124988748211951 0.5625002438058351 0  0.8749985960895963 0.5000001037366486 0  0.8749987959117185 0.5625001222489492 0  0.9374985228421533 0.4999999773538862 0  0.9374987370741332 0.5624999991732555 0  0.9999984818207804 0.4999998553476785 0  0.9999987003943006 0.5624998759881249 0  1.062498452052668 0.4999997061091985 0  1.062498684287134 0.5624997538456308 0  1.12499848430777 0.4999996181752278 0  1.124998690477076 0.5624996477943537 0  1.187498523351072 0.4999995183830652 0  1.187498720268229 0.5624995519303114 0  1.249998580595279 0.4999994101079267 0  1.249998767827826 0.5624994666584443 0  1.312498693881077 0.4999993728528372 0  1.312498834307411 0.5624994085019318 0  1.374998808733637 0.4999993361179373 0  1.374998919151692 0.5624993714312871 0  1.437498933650723 0.4999993031080078 0  1.43749901479135 0.5624993559349072 0  1.49999910466109 0.4999993557694196 0  1.499999120892225 0.5624993778020152 0  1.562499262834633 0.499999419346436 0  1.562499235779963 0.5624994270715918 0  1.624999414659634 0.4999994870494822 0  1.624999350835208 0.5624994969345332 0  1.68749959499369 0.4999996274435125 0  1.68749946427515 0.5624995942012676 0  1.749999741009146 0.4999997535019058 0  1.749999572493112 0.5624997007747501 0  1.812499855968876 0.4999998524429028 0  1.812499665573511 0.5624998043790698 0  1.874999972770502 0.4999999856255327 0  1.874999741787643 0.5624999085629421 0  1.937500025027236 0.5000000471161437 0  1.937499797460618 0.5625000006659092 0  2 0.5 0  1.999999818378585 0.5625001401681462 0  0.06249967366493885 0.6250001731576219 0  -3.252058671896022e-07 0.6250000527100911 0  0.124999663263532 0.6250002759669028 0  0.1874996424387023 0.6250003686606723 0  0.2499996112887362 0.6250004515164437 0  0.3124995696509197 0.6250005222485429 0  0.374999518588834 0.625000577068904 0  0.4374994589180281 0.6250006088478089 0  0.4999993906807641 0.6250006110795479 0  0.5624993147104079 0.6250005825104585 0  0.6249992340042443 0.6250005267434831 0  0.6874991528985024 0.6250004484036238 0  0.7499990751483202 0.6250003525101326 0  0.8124990047625016 0.6250002452274007 0  0.8749989454894259 0.6250001314942191 0  0.9374988998902714 0.6250000148691407 0  0.9999988695155765 0.6249998981983821 0  1.062498854336802 0.6249997853442032 0  1.124998855063538 0.6249996816553097 0  1.187498872134986 0.6249995892622492 0  1.249998903232637 0.6249995105965599 0  1.312498947502918 0.6249994511901159 0  1.374999004011545 0.6249994129160896 0  1.437499069253745 0.6249993975781795 0  1.499999141549311 0.6249994090552234 0  1.562499219434859 0.6249994456887453 0  1.624999298796497 0.624999503809104 0  1.687499376980195 0.6249995809352995 0  1.749999451219023 0.6249996697016099 0  1.812499516065272 0.6249997628695009 0  1.874999567255403 0.6249998588232366 0  1.937499599054377 0.6249999633190347 0  1.999999606520432 0.6250001088786495 0  0.06249956142801587 0.6875002076948067 0  -4.381168574600586e-07 0.6875001140364349 0  0.1249995554309612 0.6875002940978016 0  0.1874995418662437 0.6875003727273334 0  0.249999520552143 0.6875004425446406 0  0.3124994918926468 0.687500501024111 0  0.3749994567270006 0.687500544422229 0  0.437499415822465 0.6875005680003576 0  0.4999993695360459 0.6875005677027601 0  0.5624993183790351 0.6875005421702961 0  0.624999263770877 0.6875004929442151 0  0.6874992079909352 0.6875004232716472 0  0.7499991535930215 0.6875003372938129 0  0.812499103288194 0.6875002396389598 0  0.8749990596832398 0.6875001346588829 0  0.9374990248318298 0.6875000260903481 0  0.9999990000282827 0.6874999173519674 0  1.062498985852919 0.6874998121336164 0  1.124998982728372 0.6874997142158592 0  1.187498990666733 0.6874996266542026 0  1.249999008779707 0.6874995524154234 0  1.312499036161715 0.6874994947929102 0  1.374999071749514 0.6874994562394369 0  1.437499113844236 0.6874994386507114 0  1.499999161009294 0.6874994433990895 0  1.562499211812714 0.6874994698317188 0  1.62499926409144 0.6874995156452393 0  1.687499315634434 0.6874995775899665 0  1.749999363867165 0.6874996510239182 0  1.812499405149057 0.6874997316102369 0  1.87499943551793 0.6874998180068854 0  1.937499451497198 0.687499914157172 0  1.999999454513544 0.6875000281905548 0  0.06249948150620162 0.7500002448662583 0  -5.182869477428368e-07 0.7500001765915516 0  0.1249994782295621 0.750000313061959 0  0.1874994701694914 0.7500003769887059 0  0.2499994568666424 0.7500004338421393 0  0.3124994385722285 0.7500004806637838 0  0.374999415839522 0.7500005140604543 0  0.4374993891819472 0.7500005305000118 0  0.4999993589088097 0.7500005271640916 0  0.5624993253472522 0.7500005028700463 0  0.6249992892109968 0.7500004583311259 0  0.687499251714303 0.7500003957557202 0  0.7499992144266888 0.7500003183170988 0  0.8124991791147528 0.7500002296875331 0  0.8749991475366158 0.7500001336020573 0  0.9374991211866192 0.7500000336161333 0  0.9999991011313597 0.7499999331422287 0  1.062499088020552 0.7499998355852417 0  1.124999082213027 0.7499997442564269 0  1.187499083724582 0.7499996621864909 0  1.249999092161069 0.7499995922121544 0  1.312499106920236 0.7499995369791886 0  1.374999127234403 0.7499994986543553 0  1.437499152136866 0.7499994787894151 0  1.499999180637088 0.7499994781033047 0  1.562499211652538 0.7499994960770835 0  1.624999243801664 0.7499995309575378 0  1.687499275431805 0.7499995800024363 0  1.749999304508162 0.7499996397957083 0  1.812499328522713 0.7499997071265608 0  1.874999344992641 0.7499997800741028 0  1.937499352733364 0.7499998580947037 0  1.999999354064912 0.7499999384157192 0  0.06249942843375303 0.8125002816803102 0  -5.714965647900526e-07 0.8125002353349101 0  0.1249994268370095 0.8125003322935743 0  0.1874994225764931 0.8125003816822981 0  0.2499994151496228 0.8125004260048643 0  0.3124994045649938 0.8125004619599834 0  0.374999391070597 0.8125004864096347 0  0.4374993749192738 0.812500496491954 0  0.4999993562685711 0.812500490046257 0  0.562499335271427 0.8125004660670397 0  0.6249993122604622 0.812500424886974 0  0.6874992878592882 0.8125003680321101 0  0.7499992629687361 0.8125002979094033 0  0.8124992386781604 0.8125002174627373 0  0.8749992161281508 0.8125001298676819 0  0.9374991963545907 0.8125000383332144 0  0.9999991801754047 0.8124999460310065 0  1.062499168158655 0.8124998560785098 0  1.124999160637986 0.8124997714780148 0  1.187499157704271 0.8124996950359081 0  1.249999159210231 0.8124996293267445 0  1.312499164835439 0.81249957662422 0  1.374999174131985 0.8124995387568673 0  1.437499186549784 0.8124995169548317 0  1.499999201471173 0.8124995116729652 0  1.562499218173777 0.8124995224248082 0  1.624999235746939 0.8124995477650925 0  1.687499253047704 0.812499585428329 0  1.749999268681779 0.8124996326033388 0  1.812499281113195 0.8124996863398737 0  1.874999289106065 0.8124997437739705 0  1.937499292533418 0.8124998014507483 0  1.999999293090122 0.8124998527676321 0  0.06249939681603148 0.8750003162095616 0  -6.032009013646205e-07 0.8750002879855147 0  0.1249993962518237 0.8750003510257087 0  0.1874993944784822 0.8750003868209392 0  0.2499993910808996 0.8750004194085145 0  0.3124993859155781 0.8750004453686697 0  0.3749993789944842 0.8750004617566911 0  0.4374993703523218 0.8750004661090612 0  0.4999993599848171 0.8750004566400287 0  0.5624993478869813 0.8750004324676973 0  0.6249993341499551 0.8750003937213656 0  0.6874993190413137 0.8750003414790444 0  0.7499993030254655 0.8750002775822072 0  0.8124992867253006 0.8750002044016942 0  0.8749992708423625 0.8750001246153047 0  0.9374992560617501 0.8750000410388441 0  0.9999992429742312 0.8749999565204943 0  1.062499232034897 0.8749998738713337 0  1.1249992235495 0.8749997957975664 0  1.187499217669954 0.8749997248307536 0  1.249999214403851 0.8749996632618473 0  1.312499213643135 0.8749996130590634 0  1.374999215192599 0.8749995757583647 0  1.437499218788678 0.8749995523400074 0  1.499999224103839 0.8749995431047027 0  1.562499230721632 0.8749995475819284 0  1.624999238095586 0.8749995645165031 0  1.687499245526883 0.8749995919450261 0  1.749999252193248 0.8749996273381949 0  1.812499257287431 0.8749996677257462 0  1.874999260313021 0.8749997095880462 0  1.937499261449077 0.8749997482000804 0  1.99999926163191 0.8749997761988075 0  0.06249938194814255 0.9375003474057085 0  -6.181238000479225e-07 0.937500333752284 0  0.1249993820001127 0.9375003686281758 0  0.1874993817781052 0.9375003922423389 0  0.2499993809948454 0.9375004141655217 0  0.3124993794478608 0.9375004310692121 0  0.3749993770025802 0.9375004402040815 0  0.4374993735370893 0.9375004393768225 0  0.4999993689131266 0.9375004270352161 0  0.562499362996868 0.9375004023775916 0  0.6249993557143034 0.9375003654076127 0  0.6874993471058205 0.9
[...]
<PointData  Vectors="u"> 
<DataArray  type="Float64"  Name="u"  NumberOfComponents="3" format="ascii">5.6708538426189607e-24 2.2273701323304669e-22 0.0000000000000000e+00  8.2699644369837125e-09 -9.8361880811234667e-07 0.0000000000000000e+00  5.4811390032631505e-04 8.3554247322270689e-05 0.0000000000000000e+00  0.0000000000000000e+00 0.0000000000000000e+00 0.0000000000000000e+00  7.7947012426997945e-08 -1.6854693241949750e-06 0.0000000000000000e+00  5.9361128296215617e-04 1.2955151661766761e-04 0.0000000000000000e+00  3.3850212458758987e-07 -2.0066721938919321e-06 0.0000000000000000e+00  4.8780113922490233e-04 1.4358925234107581e-04 0.0000000000000000e+00  2.0423311939025347e-07 -3.3382186664385596e-06 0.0000000000000000e+00  3.5459695480182456e-04 1.4359991792674954e-04 0.0000000000000000e+00  6.6001387540536294e-07 -3.6188540721142504e-06 0.0000000000000000e+00  2.1729556495896782e-04 1.3721495150727320e-04 0.0000000000000000e+00  1.8123997628643113e-06 -2.7026002892214918e-06 0.0000000000000000e+00  8.3946448200545931e-05 1.2761971678250991e-04 0.0000000000000000e+00  2.3385781180760449e-06 -2.8079874022778563e-06 0.0000000000000000e+00  -4.1142661608310821e-05 1.1617322779708603e-04 0.0000000000000000e+00  3.2878182202233140e-06 -2.0522012197023579e-06 0.0000000000000000e+00  -1.5525081311559003e-04 1.0368399642238224e-04 0.0000000000000000e+00  4.1726153034024700e-06 -1.4194951248560119e-06 0.0000000000000000e+00  -2.5679689643299793e-04 9.0659776145275735e-05 0.0000000000000000e+00  4.3971543520121410e-06 -1.8187176943865929e-06 0.0000000000000000e+00  -3.4496612439336550e-04 7.7423904414170028e-05 0.0000000000000000e+00  5.1570956810192633e-06 -9.8123591923813059e-07 0.0000000000000000e+00  -4.1920614137338510e-04 6.4276421716080655e-05 0.0000000000000000e+00  5.8459678334368396e-06 -2.1921617118797681e-07 0.0000000000000000e+00  -4.7942777293370862e-04 5.1364783927197467e-05 0.0000000000000000e+00  5.8622564754724542e-06 -4.0220379279934825e-07 0.0000000000000000e+00  -5.2579086103406712e-04 3.8674529084283393e-05 0.0000000000000000e+00  6.1708691656588666e-06 6.5837487815189500e-08 0.0000000000000000e+00  -5.5836452575033270e-04 2.6295384429587693e-05 0.0000000000000000e+00  6.8066153868469973e-06 1.0807885344267585e-06 0.0000000000000000e+00  -5.7731307722513848e-04 1.4159288932690756e-05 0.0000000000000000e+00  6.6166611461856052e-06 8.1756989891415394e-07 0.0000000000000000e+00  -5.8290153244208243e-04 2.0382144533093712e-06 0.0000000000000000e+00  6.4195682063998144e-06 6.2540505023532182e-07 0.0000000000000000e+00  -5.7505899456224358e-04 -1.0105164950739573e-05 0.0000000000000000e+00  7.1058679620898605e-06 1.9151538762433821e-06 0.0000000000000000e+00  -5.5370724755680629e-04 -2.2341044181504099e-05 0.0000000000000000e+00  6.4754175829073225e-06 1.4019713960160465e-06 0.0000000000000000e+00  -5.1890725949312359e-04 -3.4968230407127867e-05 0.0000000000000000e+00  6.0569044318537813e-06 1.1518648139765351e-06 0.0000000000000000e+00  -4.7038129155068254e-04 -4.8016940404236723e-05 0.0000000000000000e+00  6.5237652863494771e-06 2.3751169355829438e-06 0.0000000000000000e+00  -4.0792287134883343e-04 -6.1435784701424563e-05 0.0000000000000000e+00  5.7173450781523615e-06 1.8127385864522510e-06 0.0000000000000000e+00  -3.3164802487656498e-04 -7.5390269262657481e-05 0.0000000000000000e+00  5.1404071996764696e-06 1.5058770755550247e-06 0.0000000000000000e+00  -2.4156434152375464e-04 -8.9713472677074158e-05 0.0000000000000000e+00  5.4687908745637214e-06 2.6965881232941038e-06 0.0000000000000000e+00  -1.3804058894999465e-04 -1.0409915527718836e-04 0.0000000000000000e+00  4.5146868592315060e-06 2.1202974644642079e-06 0.0000000000000000e+00  -2.2091196998526679e-05 -1.1836502939084904e-04 0.0000000000000000e+00  3.7898112688439336e-06 1.7460805905133564e-06 0.0000000000000000e+00  1.0503575586178679e-04 -1.3182761345194210e-04 0.0000000000000000e+00  3.9930295012312230e-06 2.7553281994293830e-06 0.0000000000000000e+00  2.4130670356316215e-04 -1.4328542063643841e-04 0.0000000000000000e+00  2.9373709771676110e-06 1.9518101856661919e-06 0.0000000000000000e+00  3.8315210066951601e-04 -1.5075578294230095e-04 0.0000000000000000e+00  2.1286009951922169e-06 1.3895631918677586e-06 0.0000000000000000e+00  5.2324851283575078e-04 -1.4962414992966686e-04 0.0000000000000000e+00  2.2866378382549481e-06 2.2890606807085667e-06 0.0000000000000000e+00  6.3557878304204020e-04 -1.3004331912624682e-04 0.0000000000000000e+00  1.2981584636468555e-06 1.3701307719177292e-06 0.0000000000000000e+00  6.0398256341922575e-04 -7.4182813273370715e-05 0.0000000000000000e+00  -8.2108694039432362e-23 -8.9792512705281535e-23 0.0000000000000000e+00  0.0000000000000000e+00 0.0000000000000000e+00 0.0000000000000000e+00  7.8181642195379022e-04 1.5453273025829145e-04 0.0000000000000000e+00  0.0000000000000000e+00 0.0000000000000000e+00 0.0000000000000000e+00  8.3218634974916242e-04 2.5729991635765588e-04 0.0000000000000000e+00  7.1368193303474286e-04 3.0320340517315961e-04 0.0000000000000000e+00  5.4090035777084038e-04 3.1671315766467736e-04 0.0000000000000000e+00  3.4990267375426952e-04 3.1166730728229445e-04 0.0000000000000000e+00  1.5639270939997414e-04 2.9554034884892968e-04 0.0000000000000000e+00  -3.0542912517093443e-05 2.7253923941148914e-04 0.0000000000000000e+00  -2.0492763332869484e-04 2.4526560554661973e-04 0.0000000000000000e+00  -3.6275078124428005e-04 2.1550125916725417e-04 0.0000000000000000e+00  -5.0147117859411538e-04 1.8446587155978759e-04 0.0000000000000000e+00  -6.1957037306593823e-04 1.5298039560378664e-04 0.0000000000000000e+00  -7.1620480963664171e-04 1.2160833150558285e-04 0.0000000000000000e+00  -7.9104600655263658e-04 9.0624324381921489e-05 0.0000000000000000e+00  -8.4405965342009741e-04 6.0104187314729827e-05 0.0000000000000000e+00  -8.7530695749295348e-04 2.9995966977948919e-05 0.0000000000000000e+00  -8.8489746562969262e-04 1.1351833676961539e-07 0.0000000000000000e+00  -8.7289554408377852e-04 -2.9783745077744882e-05 0.0000000000000000e+00  -8.3927812208389599e-04 -5.9913835455720048e-05 0.0000000000000000e+00  -7.8403327402590522e-04 -9.0491675636739479e-05 0.0000000000000000e+00  -7.0716738265766237e-04 -1.2162985681893057e-04 0.0000000000000000e+00  -6.0876961458271154e-04 -1.5324031348549211e-04 0.0000000000000000e+00  -4.8924845251755865e-04 -1.8508481798266686e-04 0.0000000000000000e+00  -3.4946265507716334e-04 -2.1666208391361990e-04 0.0000000000000000e+00  -1.9089638667664193e-04 -2.4708834713979485e-04 0.0000000000000000e+00  -1.5985822589405212e-05 -2.7508503798064624e-04 0.0000000000000000e+00  1.7167282002943554e-04 -2.9872076488639086e-04 0.0000000000000000e+00  3.6702763565612981e-04 -3.1495943878408114e-04 0.0000000000000000e+00  5.6270556715773683e-04 -3.1893265640767091e-04 0.0000000000000000e+00  7.4562108476888833e-04 -3.0230566027748752e-04 0.0000000000000000e+00  8.7879937603690321e-04 -2.5079511911683548e-04 0.0000000000000000e+00  8.1276484198314044e-04 -1.4441126207779284e-04 0.0000000000000000e+00  0.0000000000000000e+00 0.0000000000000000e+00 0.0000000000000000e+00  8.9337931075305569e-04 2.1687828381943081e-04 0.0000000000000000e+00  0.0000000000000000e+00 0.0000000000000000e+00 0.0000000000000000e+00  9.6927745898812718e-04 3.7921996857183594e-04 0.0000000000000000e+00  8.4227373857083626e-04 4.6998470885960465e-04 0.0000000000000000e+00  6.5319669256546807e-04 5.1023273768214660e-04 0.0000000000000000e+00  4.3863842722059433e-04 5.1655182623121200e-04 0.0000000000000000e+00  2.1547033616148851e-04 5.0003155991343805e-04 0.0000000000000000e+00  -4.7407263184126136e-06 4.6811676253409200e-04 0.0000000000000000e+00  -2.1359722031411962e-04 4.2597226250684454e-04 0.0000000000000000e+00  -4.0508274881956833e-04 3.7731525043973978e-04 0.0000000000000000e+00  -5.7508942806709954e-04 3.2482765373735638e-04 0.0000000000000000e+00  -7.2096125770876936e-04 2.7038771519639643e-04 0.0000000000000000e+00  -8.4107917489848534e-04 2.1527021612102731e-04 0.0000000000000000e+00  -9.3457964662847228e-04 1.6023412958540576e-04 0.0000000000000000e+00  -1.0010898258288612e-03 1.0561483002589716e-04 0.0000000000000000e+00  -1.0404916332444887e-03 5.1461634874566568e-05 0.0000000000000000e+00  -1.0527907013204972e-03 -2.3796739349794085e-06 0.0000000000000000e+00  -1.0380307982243496e-03 -5.6185714559580531e-05 0.0000000000000000e+00  -9.9624922659466409e-04 -1.1022295175468424e-04 0.0000000000000000e+00  -9.2753121576656064e-04 -1.6466060706796625e-04 0.0000000000000000e+00  -8.3208314599816696e-04 -2.1947985937546946e-04 0.0000000000000000e+00  -7.1035447642973373e-04 -2.7433521226630583e-04 0.0000000000000000e+00  -5.6326083019871750e-04 -3.2847098402916190e-04 0.0000000000000000e+00  -3.9242106142686311e-04 -3.8062365532187344e-04 0.0000000000000000e+00  -2.0041594485206135e-04 -4.2885124011171204e-04 0.0000000000000000e+00  8.8824094554613297e-06 -4.7037482228002653e-04 0.0000000000000000e+00  2.3002162660069298e-04 -5.0131866471756772e-04 0.0000000000000000e+00  4.5569697415543027e-04 -5.1621691463682191e-04 0.0000000000000000e+00  6.7608503608703797e-04 -5.0728728070761604e-04 0.0000000000000000e+00  8.7552679514877642e-04 -4.6337405997422341e-04 0.0000000000000000e+00  1.0133167037457936e-03 -3.6905373212182556e-04 0.0000000000000000e+00  9.2650904328558524e-04 -2.0778172977778972e-04 0.0000000000000000e+00  0.0000000000000000e+00 0.0000000000000000e+00 0.0000000000000000e+00  9.8782431513243642e-04 2.8069498325751789e-04 0.0000000000000000e+00  0.0000000000000000e+00 0.0000000000000000e+00 0.0000000000000000e+00  1.0768259828483320e-03 5.0184463311937733e-04 0.0000000000000000e+00  9.4282522421320074e-04 6.4196143462627304e-04 0.0000000000000000e+00  7.4302204349975998e-04 7.1603565852607499e-04 0.0000000000000000e+00  5.1488526984415448e-04 7.4044217093446570e-04 0.0000000000000000e+00  2.7527824299360088e-04 7.2849808354998166e-04 0.0000000000000000e+00  3.6296655318496590e-05 6.9049635961855940e-04 0.0000000000000000e+00  -1.9257352605344505e-04 6.3431166898383765e-04 0.0000000000000000e+00  -4.0413100198722767e-04 5.6594708968517576e-04 0.0000000000000000e+00  -5.9321184767499710e-04 4.8991295744786698e-04 0.0000000000000000e+00  -7.5631505679708627e-04 4.0949143095049025e-04 0.0000000000000000e+00  -8.9120496486788030e-04 3.2695834296179852e-04 0.0000000000000000e+00  -9.9658111901165716e-04 2.4375680545311371e-04 0.0000000000000000e+00  -1.0717784324387133e-03 1.6065704708985516e-04 0.0000000000000000e+00  -1.1165082908100304e-03 7.7934332585246347e-05 0.0000000000000000e+00  -1.1306835886304596e-03 -4.4676850871792739e-06 0.0000000000000000e+00  -1.1143158324438021e-03 -8.6780988050710035e-05 0.0000000000000000e+00  -1.0674777187093395e-03 -1.6923793743487387e-04 0.0000000000000000e+00  -9.9033677431838293e-04 -2.5190341554782493e-04 0.0000000000000000e+00  -8.8325754234307532e-04 -3.3451429529946544e-04 0.0000000000000000e+00  -7.4696027599505978e-04 -4.1630071825616514e-04 0.0000000000000000e+00  -5.8275962124461540e-04 -4.9581893517723662e-04 0.0000000000000000e+00  -3.9284311206447020e-04 -5.7078646456037172e-04 0.0000000000000000e+00  -1.8056836453789684e-04 -6.3788346323934847e-04 0.0000000000000000e+00  4.9220625544260996e-05 -6.9253562299445039e-04 0.0000000000000000e+00  2.8994293733284845e-04 -7.2864720265368227e-04 0.0000000000000000e+00  5.3312891826399740e-04 -7.3822861937075559e-04 0.0000000000000000e+00  7.6799482955154630e-04 -7.1095847842331326e-04 0.0000000000000000e+00  9.7820659127293569e-04 -6.3384555675805737e-04 0.0000000000000000e+00  1.1211804592865700e-03 -4.9167702330020643e-04 0.0000000000000000e+00  1.0210667327992713e-03 -2.7157096643240595e-04 0.0000000000000000e+00  0.0000000000000000e+00 0.0000000000000000e+00 0.0000000000000000e+00  1.0856734544370664e-03 3.4850381021287781e-04 0.0000000000000000e+00  0.0000000000000000e+00 0.0000000000000000e+00 0.0000000000000000e+00  1.1851876148442867e-03 6.3002858521652057e-04 0.0000000000000000e+00  1.0445801464171939e-03 8.2018798382735747e-04 0.0000000000000000e+00  8.3620181607389028e-04 9.3016787143669025e-04 0.0000000000000000e+00  5.9967139372743149e-04 9.7542825883626923e-04 0.0000000000000000e+00  3.5132347005482060e-04 9.7057875099150254e-04 0.0000000000000000e+00  1.0297741799081981e-04 9.2820636920634442e-04 0.0000000000000000e+00  -1.3572563117099072e-04 8.5870481211881042e-04 0.0000000000000000e+00  -3.5718684793358473e-04 7.7040959178953502e-04 0.0000000000000000e+00  -5.5577758486855509e-04 6.6980834128783353e-04 0.0000000000000000e+00  -7.2757230389264521e-04 5.6176019891266598e-04 0.0000000000000000e+00  -8.7000018087208392e-04 4.4971869883629129e-04 0.0000000000000000e+00  -9.8151782852545452e-04 3.3595350009587666e-04 0.0000000000000000e+00  -1.0612959954687713e-03 2.2177544700697176e-04 0.0000000000000000e+00  -1.1089463216464568e-03 1.0777233942216045e-04 0.0000000000000000e+00  -1.1243262450183142e-03 -5.9526955780154275e-06 0.0000000000000000e+00  -1.1074248082218359e-03 -1.1954386191038171e-04 0.0000000000000000e+00  -1.0583197538621110e-03 -2.3314892627623510e-04 0.0000000000000000e+00  -9.7721438547004728e-04 -3.4667577119906209e-04 0.0000000000000000e+00  -8.6454083015275883e-04 -4.5955103302179948e-04 0.0000000000000000e+00  -7.2114716575714792e-04 -5.7047929511955589e-04 0.0000000000000000e+00  -5.4854551509582569e-04 -6.7720599960207370e-04 0.0000000000000000e+00  -3.4920113333365742e-04 -7.7628813552870109e-04 0.0000000000000000e+00  -1.2683655034622713e-04 -8.6286763375363488e-04 0.0000000000000000e+00  1.1328371509690824e-04 -9.3044853160329758e-04 0.0000000000000000e+00  3.6417787945127827e-04 -9.7068310993848645e-04 0.0000000000000000e+00  6.1711700600914189e-04 -9.7318383282144199e-04 0.0000000000000000e+00  8.6131955048365436e-04 -9.2544590034296316e-04 0.0000000000000000e+00  1.0804893142928112e-03 -8.1310113502920190e-04 0.0000000000000000e+00  1.2298598707761814e-03 -6.2113241512175613e-04 0.0000000000000000e+00  1.1179221725654092e-03 -3.3902810132442049e-04 0.0000000000000000e+00  0.0000000000000000e+00 0.0000000000000000e+00 0.0000000000000000e+00  1.1954989984011373e-03 4.2035313120433081e-04 0.0000000000000000e+00  0.0000000000000000e+00 0.0000000000000000e+00 0.0000000000000000e+00  1.3085101655315901e-03 7.6426378976968753e-04 0.0000000000000000e+00  1.1634280577938732e-03 1.0040351031048928e-03 0.0000000000000000e+00  9.4981456655462808e-04 1.1493670829255543e-03 0.0000000000000000e+00  7.0982870811566530e-04 1.2154680930480770e-03 0.0000000000000000e+00  4.5943159682076956e-04 1.2180765302024586e-03 0.0000000000000000e+00  2.0978259470589579e-04 1.1717524619483792e-03 0.0000000000000000e+00  -2.9921637767843176e-05 1.0891770237549973e-03 0.0000000000000000e+00  -2.5229097821476924e-04 9.8091835386821262e-04 0.0000000000000000e+00  -4.5176087871846778e-04 8.5543478350898650e-04 0.0000000000000000e+00  -6.2440381264846983e-04 7.1920205401888448e-04 0.0000000000000000e+00  -7.6762916677771277e-04 5.7691350748071877e-04 0.0000000000000000e+00  -8.7987926206127348e-04 4.3172501629048788e-04 0.0000000000000000e+00  -9.6031946383611975e-04 2.8553154207809313e-04 0.0000000000000000e+00  -1.0085613902697293e-03 1.3926677353319483e-04 0.0000000000000000e+00  -1.0244618000044962e-03 -6.7850382988264662e-06 0.0000000000000000e+00  -1.0080009448508805e-03 -1.5267001413311789e-04 0.0000000000000000e+00  -9.5924033596489510e-04 -2.9844115583792821e-04 0.0000000000000000e+00  -8.7835252312678483e-04 -4.4383332741010416e-04 0.0000000000000000e+00  -7.6573681941234759e-04 -5.8794311556904268e-04 0.0000000000000000e+00  -6.2220232953731408e-04 -7.2891276524375559e-04 0.0000000000000000e+00  -4.4922876468207496e-04 -8.6362881252135886e-04 0.0000000000000000e+00  -2.4925228895070071e-04 -9.8744198465448288e-04 0.0000000000000000e+00  -2.5947330309225488e-05 -1.0939171634238166e-03 0.0000000000000000e+00  2.1551851287828378e-04 -1.1746334390854191e-03 0.0000000000000000e+00  4.6836740131322996e-04 -1.2190587411517262e-03 0.0000000000000000e+00  7.2426283545577838e-04 -1.2145468476580136e-03 0.0000000000000000e+00  9.7299697424743799e-04 -1.1465597023381940e-03 0.0000000000000000e+00  1.1985255561980021e-03 -9.9930883187327032e-04 0.0000000000000000e+00  1.3532123341692900e-03 -7.5731074444837509e-04 0.0000000000000000e+00  1.2268623208047925e-03 -4.1086054319120722e-04 0.0000000000000000e+00  0.0000000000000000e+00 0.0000000000000000e+00 0.0000000000000000e+00  1.3233281010379321e-03 4.9483599731509206e-04 0.0000000000000000e+00  0.0000000000000000e+00 0.0000000000000000e+00 0.0000000000000000e+00  1.4557754434151259e-03 9.0216196262548818e-04 0.0000000000000000e+00  1.3108656804047792e-03 1.1901856716638091e-03 0.0000000000000000e+00  1.0974886105615460e-03 1.3688167326940512e-03 0.0000000000000000e+00  8.6066327209384345e-04 1.4540331990669335e-03 0.0000000000000000e+00  6.1596934822214899e-04 1.4629887216210476e-03 0.0000000000000000e+00  3.7364164288215259e-04 1.4121601141385137e-03 0.0000000000000000e+00  1.4202155041141885e-04 1.3163629542228019e-03 0.0000000000000000e+00  -7.2169232252420874e-05 1.1882611604819029e-03 0.0000000000000000e+00  -2.6386290208245058e-04 1.0381913834571581e-03 0.0000000000000000e+00  -4.2949892732257333e-04 8.7419170210674695e-04 0.0000000000000000e+00  -5.6675985303551940e-04 7.0216568047394340e-04 0.0000000000000000e+00  -6.7429293555382826e-04 5.2613753784105325e-04 0.0000000000000000e+00  -7.5141537173975786e-04 3.4856929648701909e-04 0.0000000000000000e+00  -7.9784241210454959e-04 1.7072050597135953e-04 0.0000000000000000e+00  -8.1348740958830598e-04 -6.9664678374625726e-06 0.0000000000000000e+00  -7.9834183302285430e-04 -1.8446753424413819e-04 0.0000000000000000e+00  -7.5242849231153938e-04 -3.6176975457121618e-04 0.0000000000000000e+00  -6.7583628950051164e-04 -5.3846406724444363e-04 0.0000000000000000e+00  -5.6882355375431962e-04 -7.1334210548127774e-04 0.0000000000000000e+00  -4.3201252673049013e-04 -8.8400858112064394e-04 0.0000000000000000e+00  -2.6663521486826374e-04 -1.0465153700152806e-03 0.0000000000000000e+00  -7.4810622296076198e-05 -1.1950371398284185e-03 0.0000000000000000e+00  1.4019112843869220e-04 -1.3216106346188329e-03 0.0000000000000000e+00  3.7373292161290876e-04 -1.4159622623039511e-03 0.0000000000000000e+00  6.1973287479658804e-04 -1.4654689647475543e-03 0.0000000000000000e+00  8.7073854769003029e-04 -1.4553094445312281e-03 0.0000000000000000e+00  1.1175308717654008e-03 -1.3688891978200031e-03 0.0000000000000000e+00  1.3445165647979855e-03 -1.1886754148045181e-03 0.0000000000000000e+00  1.5007354706448699e-03 -8.9785315797895207e-04 0.0000000000000000e+00  1.3543522035494959e-03 -4.8605781147270693e-04 0.0000000000000000e+00  0.0000000000000000e+00 0.0000000000000000e+00 0.0000000000000000e+00  1.4736961950203369e-03 5.6928891513667644e-04 0.0000000000000000e+00  0.0000000000000000e+00 0.0000000000000000e+00 0.0000000000000000e+00  1.6339065253704228e-03 1.0390253712759573e-03 0.0000000000000000e+00  1.4962940419718383e-03 1.3725382826190256e-03 0.0000000000000000e+00  1.2912472110875350e-03 1.5812072308312075e-03 0.0000000000000000e+00  1.0666805788624454e-03 1.6827113104446189e-03 0.0000000000000000e+00  8.3751873761927305e-04 1.6960396872439504e-03 0.0000000000000000e+00  6.1274698153482364e-04 1.6396584969183162e-03 0.0000000000000000e+00  3.9948675134389986e-04 1.5304270688787770e-03 0.0000000000000000e+00  2.0342116231693888e-04 1.3829606001895549e-03 0.0000000000000000e+00  2.8774951564706740e-05 1.2093324287295914e-03 0.0000000000000000e+00  -1.2155581634101189e-04 1.0190223315048891e-03 0.0000000000000000e+00  -2.4576511708778847e-04 8.1904618928814530e-04 0.0000000000000000e+00  -3.4288776064008564e-04 6.1421504021823389e-04 0.0000000000000000e+00  -4.1252363079725355e-04 4.0748720849882215e-04 0.0000000000000000e+00  -4.5457914721169275e-04 2.0038311839182618e-04 0.0000000000000000e+00  -4.6907564893687326e-04 -6.5599694243131488e-0